ITEM: TIMESTEP
0
ITEM: NUMBER OF ATOMS
629
ITEM: BOX BOUNDS pp ss pp
0.0000000000000000e+00 5.1374269009840255e+01
-2.2245711031688635e-03 2.2247935602791809e+01
-3.2108918131150160e-01 3.2108918131150160e-01
ITEM: ATOMS id type x y z vx
1 2 0 0 0 0
3 2 1.28436 0 0 0
5 2 2.56871 0 0 0
7 2 3.85307 0 0 0
9 2 5.13743 0 0 0
11 2 6.42178 0 0 0
13 2 7.70614 0 0 0
15 2 8.9905 0 0 0
17 2 10.2749 0 0 0
25 2 15.4123 0 0 0
27 2 16.6966 0 0 0
29 2 17.981 0 0 0
31 2 19.2654 0 0 0
33 2 20.5497 0 0 0
35 2 21.8341 0 0 0
37 2 23.1184 0 0 0
39 2 24.4028 0 0 0
41 2 25.6871 0 0 0
43 2 26.9715 0 0 0
45 2 28.2558 0 0 0
47 2 29.5402 0 0 0
49 2 30.8246 0 0 0
51 2 32.1089 0 0 0
53 2 33.3933 0 0 0
55 2 34.6776 0 0 0
57 2 35.962 0 0 0
59 2 37.2463 0 0 0
61 2 38.5307 0 0 0
63 2 39.8151 0 0 0
65 2 41.0994 0 0 0
67 2 42.3838 0 0 0
69 2 43.6681 0 0 0
71 2 44.9525 0 0 0
73 2 46.2368 0 0 0
75 2 47.5212 0 0 0
77 2 48.8056 0 0 0
79 2 50.0899 0 0 0
2 2 0.642178 1.11229 0 0
4 2 1.92654 1.11229 0 0
6 2 3.21089 1.11229 0 0
8 2 4.49525 1.11229 0 0
10 2 5.77961 1.11229 0 0
12 2 7.06396 1.11229 0 0
30 2 18.6232 1.11229 0 0
32 2 19.9075 1.11229 0 0
34 2 21.1919 1.11229 0 0
36 2 22.4762 1.11229 0 0
38 2 23.7606 1.11229 0 0
40 2 25.045 1.11229 0 0
42 2 26.3293 1.11229 0 0
44 2 27.6137 1.11229 0 0
46 2 28.898 1.11229 0 0
48 2 30.1824 1.11229 0 0
50 2 31.4667 1.11229 0 0
52 2 32.7511 1.11229 0 0
54 2 34.0355 1.11229 0 0
56 2 35.3198 1.11229 0 0
58 2 36.6042 1.11229 0 0
60 2 37.8885 1.11229 0 0
62 2 39.1729 1.11229 0 0
64 2 40.4572 1.11229 0 0
66 2 41.7416 1.11229 0 0
68 2 43.026 1.11229 0 0
70 2 44.3103 1.11229 0 0
72 2 45.5947 1.11229 0 0
74 2 46.879 1.11229 0 0
76 2 48.1634 1.11229 0 0
78 2 49.4477 1.11229 0 0
80 2 50.7321 1.11229 0 0
81 2 0 2.22457 0 0
83 2 1.28436 2.22457 0 0
85 2 2.56871 2.22457 0 0
87 2 3.85307 2.22457 0 0
89 2 5.13743 2.22457 0 0
91 2 6.42178 2.22457 0 0
111 2 19.2654 2.22457 0 0
113 2 20.5497 2.22457 0 0
115 2 21.8341 2.22457 0 0
117 2 23.1184 2.22457 0 0
119 2 24.4028 2.22457 0 0
121 2 25.6871 2.22457 0 0
123 2 26.9715 2.22457 0 0
125 2 28.2558 2.22457 0 0
127 2 29.5402 2.22457 0 0
129 2 30.8246 2.22457 0 0
131 2 32.1089 2.22457 0 0
133 2 33.3933 2.22457 0 0
135 2 34.6776 2.22457 0 0
137 2 35.962 2.22457 0 0
139 2 37.2463 2.22457 0 0
141 2 38.5307 2.22457 0 0
143 2 39.8151 2.22457 0 0
145 2 41.0994 2.22457 0 0
147 2 42.3838 2.22457 0 0
149 2 43.6681 2.22457 0 0
151 2 44.9525 2.22457 0 0
153 2 46.2368 2.22457 0 0
155 2 47.5212 2.22457 0 0
157 2 48.8056 2.22457 0 0
159 2 50.0899 2.22457 0 0
82 1 0.642178 3.33686 0 0.466757
84 1 1.92654 3.33686 0 1.41953
86 1 3.21089 3.33686 0 -0.744088
88 1 4.49525 3.33686 0 -1.38153
114 1 21.1919 3.33686 0 -0.0959682
116 1 22.4762 3.33686 0 0.122229
118 1 23.7606 3.33686 0 -1.60243
120 1 25.045 3.33686 0 -0.91769
122 1 26.3293 3.33686 0 0.946593
124 1 27.6137 3.33686 0 -0.278674
126 1 28.898 3.33686 0 0.609353
128 1 30.1824 3.33686 0 0.764991
130 1 31.4667 3.33686 0 0.754015
132 1 32.7511 3.33686 0 -0.219437
134 1 34.0355 3.33686 0 0.0590371
136 1 35.3198 3.33686 0 1.45731
138 1 36.6042 3.33686 0 1.5077
140 1 37.8885 3.33686 0 1.44666
142 1 39.1729 3.33686 0 -0.347135
144 1 40.4572 3.33686 0 -1.03097
146 1 41.7416 3.33686 0 -1.35381
148 1 43.026 3.33686 0 1.21451
150 1 44.3103 3.33686 0 0.922647
152 1 45.5947 3.33686 0 -0.534885
154 1 46.879 3.33686 0 -0.721467
156 1 48.1634 3.33686 0 -0.782337
158 1 49.4477 3.33686 0 -1.72457
160 1 50.7321 3.33686 0 1.64099
161 1 0 4.44914 0 0.679818
163 1 1.28436 4.44914 0 -0.554233
165 1 2.56871 4.44914 0 -1.55226
167 1 3.85307 4.44914 0 -1.70683
195 1 21.8341 4.44914 0 -1.21714
197 1 23.1184 4.44914 0 1.20986
199 1 24.4028 4.44914 0 1.4914
201 1 25.6871 4.44914 0 -1.26332
203 1 26.9715 4.44914 0 -1.04438
205 1 28.2558 4.44914 0 -1.45762
207 1 29.5402 4.44914 0 0.303022
209 1 30.8246 4.44914 0 0.907467
211 1 32.1089 4.44914 0 -0.928431
213 1 33.3933 4.44914 0 1.53068
215 1 34.6776 4.44914 0 -1.272
217 1 35.962 4.44914 0 -0.839314
219 1 37.2463 4.44914 0 0.554126
221 1 38.5307 4.44914 0 -0.514541
223 1 39.8151 4.44914 0 0.231856
225 1 41.0994 4.44914 0 0.210409
227 1 42.3838 4.44914 0 1.71495
229 1 43.6681 4.44914 0 1.1099
231 1 44.9525 4.44914 0 1.4955
233 1 46.2368 4.44914 0 0.193483
235 1 47.5212 4.44914 0 0.93326
237 1 48.8056 4.44914 0 -0.285216
239 1 50.0899 4.44914 0 1.64495
162 1 0.642178 5.56143 0 -0.740363
164 1 1.92654 5.56143 0 -0.798944
166 1 3.21089 5.56143 0 -0.369811
196 1 22.4762 5.56143 0 -1.30726
198 1 23.7606 5.56143 0 1.42496
200 1 25.045 5.56143 0 0.850599
202 1 26.3293 5.56143 0 -1.39498
204 1 27.6137 5.56143 0 -1.64839
206 1 28.898 5.56143 0 0.0809812
208 1 30.1824 5.56143 0 1.21066
210 1 31.4667 5.56143 0 -1.6814
212 1 32.7511 5.56143 0 1.61616
214 1 34.0355 5.56143 0 -1.14829
216 1 35.3198 5.56143 0 1.69861
218 1 36.6042 5.56143 0 0.835628
220 1 37.8885 5.56143 0 1.70411
222 1 39.1729 5.56143 0 -0.604346
224 1 40.4572 5.56143 0 0.714965
226 1 41.7416 5.56143 0 -0.243384
228 1 43.026 5.56143 0 0.853124
230 1 44.3103 5.56143 0 -0.465342
232 1 45.5947 5.56143 0 -0.783528
234 1 46.879 5.56143 0 -0.54956
236 1 48.1634 5.56143 0 -1.50104
238 1 49.4477 5.56143 0 -1.42775
240 1 50.7321 5.56143 0 0.178522
275 1 21.8341 6.67371 0 0.678041
277 1 23.1184 6.67371 0 0.421839
279 1 24.4028 6.67371 0 -1.42018
281 1 25.6871 6.67371 0 0.102401
283 1 26.9715 6.67371 0 -0.525158
285 1 28.2558 6.67371 0 -0.363361
287 1 29.5402 6.67371 0 -0.634944
289 1 30.8246 6.67371 0 -1.07691
291 1 32.1089 6.67371 0 1.47691
293 1 33.3933 6.67371 0 0.125046
295 1 34.6776 6.67371 0 -1.33703
297 1 35.962 6.67371 0 -0.437317
299 1 37.2463 6.67371 0 1.51558
301 1 38.5307 6.67371 0 0.242696
303 1 39.8151 6.67371 0 -1.55592
305 1 41.0994 6.67371 0 1.67481
307 1 42.3838 6.67371 0 -0.475206
309 1 43.6681 6.67371 0 1.06533
311 1 44.9525 6.67371 0 1.27456
313 1 46.2368 6.67371 0 -0.984995
315 1 47.5212 6.67371 0 0.0323565
317 1 48.8056 6.67371 0 1.0836
319 1 50.0899 6.67371 0 0.0972665
276 1 22.4762 7.786 0 0.379744
278 1 23.7606 7.786 0 -1.58011
280 1 25.045 7.786 0 1.41652
282 1 26.3293 7.786 0 -1.29461
284 1 27.6137 7.786 0 -0.453267
286 1 28.898 7.786 0 -0.81989
288 1 30.1824 7.786 0 -0.643362
290 1 31.4667 7.786 0 1.2149
292 1 32.7511 7.786 0 -1.67242
294 1 34.0355 7.786 0 -1.39081
296 1 35.3198 7.786 0 0.536316
298 1 36.6042 7.786 0 -1.23695
300 1 37.8885 7.786 0 -0.224877
302 1 39.1729 7.786 0 1.59559
304 1 40.4572 7.786 0 0.666016
306 1 41.7416 7.786 0 1.38959
308 1 43.026 7.786 0 0.781806
310 1 44.3103 7.786 0 -1.41589
312 1 45.5947 7.786 0 0.877974
314 1 46.879 7.786 0 -1.41179
316 1 48.1634 7.786 0 -1.27284
318 1 49.4477 7.786 0 0.587707
320 1 50.7321 7.786 0 0.556837
357 1 23.1184 8.89828 0 0.594471
359 1 24.4028 8.89828 0 -0.323063
361 1 25.6871 8.89828 0 -1.53971
363 1 26.9715 8.89828 0 1.47922
365 1 28.2558 8.89828 0 -1.19103
367 1 29.5402 8.89828 0 1.52143
369 1 30.8246 8.89828 0 1.49704
371 1 32.1089 8.89828 0 1.17219
373 1 33.3933 8.89828 0 1.66264
375 1 34.6776 8.89828 0 -0.25849
377 1 35.962 8.89828 0 -1.17852
379 1 37.2463 8.89828 0 0.964747
381 1 38.5307 8.89828 0 1.49651
383 1 39.8151 8.89828 0 0.791589
385 1 41.0994 8.89828 0 0.399107
387 1 42.3838 8.89828 0 -1.28171
389 1 43.6681 8.89828 0 0.689113
391 1 44.9525 8.89828 0 1.23311
393 1 46.2368 8.89828 0 1.55889
395 1 47.5212 8.89828 0 0.641538
397 1 48.8056 8.89828 0 1.42121
399 1 50.0899 8.89828 0 -0.682351
356 1 22.4762 10.0106 0 -0.99222
358 1 23.7606 10.0106 0 -0.947651
360 1 25.045 10.0106 0 -1.59703
362 1 26.3293 10.0106 0 -0.680162
364 1 27.6137 10.0106 0 1.45848
366 1 28.898 10.0106 0 -1.41846
368 1 30.1824 10.0106 0 1.55381
370 1 31.4667 10.0106 0 -0.727646
372 1 32.7511 10.0106 0 1.52374
374 1 34.0355 10.0106 0 -0.302943
376 1 35.3198 10.0106 0 -1.00444
378 1 36.6042 10.0106 0 0.319534
380 1 37.8885 10.0106 0 0.808285
382 1 39.1729 10.0106 0 -1.39001
384 1 40.4572 10.0106 0 0.540871
386 1 41.7416 10.0106 0 -1.15881
388 1 43.026 10.0106 0 0.164668
390 1 44.3103 10.0106 0 1.18384
392 1 45.5947 10.0106 0 -1.46557
394 1 46.879 10.0106 0 0.587006
396 1 48.1634 10.0106 0 -0.477961
398 1 49.4477 10.0106 0 0.310469
400 1 50.7321 10.0106 0 -1.39203
435 1 21.8341 11.1229 0 -1.0102
437 1 23.1184 11.1229 0 -0.591882
439 1 24.4028 11.1229 0 0.589423
441 1 25.6871 11.1229 0 -0.462106
443 1 26.9715 11.1229 0 0.920756
445 1 28.2558 11.1229 0 -1.01246
447 1 29.5402 11.1229 0 0.835162
449 1 30.8246 11.1229 0 0.727401
451 1 32.1089 11.1229 0 0.124946
453 1 33.3933 11.1229 0 -1.39034
455 1 34.6776 11.1229 0 0.785601
457 1 35.962 11.1229 0 1.27685
459 1 37.2463 11.1229 0 -0.551251
461 1 38.5307 11.1229 0 0.511394
463 1 39.8151 11.1229 0 1.7476
465 1 41.0994 11.1229 0 -0.295396
467 1 42.3838 11.1229 0 1.02842
469 1 43.6681 11.1229 0 -1.65731
471 1 44.9525 11.1229 0 -0.724795
473 1 46.2368 11.1229 0 1.29902
475 1 47.5212 11.1229 0 -0.193832
477 1 48.8056 11.1229 0 -0.77834
479 1 50.0899 11.1229 0 0.572704
436 1 22.4762 12.2351 0 1.5452
438 1 23.7606 12.2351 0 0.812533
440 1 25.045 12.2351 0 -0.174983
442 1 26.3293 12.2351 0 -0.468925
444 1 27.6137 12.2351 0 1.48782
446 1 28.898 12.2351 0 0.378898
448 1 30.1824 12.2351 0 -1.72665
450 1 31.4667 12.2351 0 0.378492
452 1 32.7511 12.2351 0 1.30704
454 1 34.0355 12.2351 0 1.18694
456 1 35.3198 12.2351 0 0.953794
458 1 36.6042 12.2351 0 -0.487247
460 1 37.8885 12.2351 0 -0.0538369
462 1 39.1729 12.2351 0 0.167098
464 1 40.4572 12.2351 0 0.0079605
466 1 41.7416 12.2351 0 -0.69607
468 1 43.026 12.2351 0 -1.39057
470 1 44.3103 12.2351 0 0.111231
472 1 45.5947 12.2351 0 -1.60717
474 1 46.879 12.2351 0 -0.570171
476 1 48.1634 12.2351 0 -0.0064535
478 1 49.4477 12.2351 0 -0.88758
480 1 50.7321 12.2351 0 0.780361
515 1 21.8341 13.3474 0 -0.197539
517 1 23.1184 13.3474 0 0.368322
519 1 24.4028 13.3474 0 -0.246388
521 1 25.6871 13.3474 0 1.28787
523 1 26.9715 13.3474 0 0.142253
525 1 28.2558 13.3474 0 0.549092
527 1 29.5402 13.3474 0 -0.660439
529 1 30.8246 13.3474 0 -1.3341
531 1 32.1089 13.3474 0 -1.65442
533 1 33.3933 13.3474 0 0.562652
535 1 34.6776 13.3474 0 -0.835474
537 1 35.962 13.3474 0 -0.512884
539 1 37.2463 13.3474 0 0.398024
541 1 38.5307 13.3474 0 -0.674221
543 1 39.8151 13.3474 0 -1.6898
545 1 41.0994 13.3474 0 -1.0494
547 1 42.3838 13.3474 0 0.803259
549 1 43.6681 13.3474 0 0.895844
551 1 44.9525 13.3474 0 -1.50323
553 1 46.2368 13.3474 0 1.1998
555 1 47.5212 13.3474 0 1.66082
557 1 48.8056 13.3474 0 -0.730294
559 1 50.0899 13.3474 0 0.120454
482 1 0.642178 14.4597 0 1.31623
484 1 1.92654 14.4597 0 0.0537028
486 1 3.21089 14.4597 0 1.7307
488 1 4.49525 14.4597 0 -1.47113
514 1 21.1919 14.4597 0 -1.69845
516 1 22.4762 14.4597 0 -0.377145
518 1 23.7606 14.4597 0 -0.502922
520 1 25.045 14.4597 0 -0.754785
522 1 26.3293 14.4597 0 1.28105
524 1 27.6137 14.4597 0 0.324428
526 1 28.898 14.4597 0 -0.139441
528 1 30.1824 14.4597 0 0.473339
530 1 31.4667 14.4597 0 -1.46047
532 1 32.7511 14.4597 0 -0.246561
534 1 34.0355 14.4597 0 -0.309981
536 1 35.3198 14.4597 0 1.69201
538 1 36.6042 14.4597 0 -0.696424
540 1 37.8885 14.4597 0 -0.841031
542 1 39.1729 14.4597 0 -1.56571
544 1 40.4572 14.4597 0 -1.44224
546 1 41.7416 14.4597 0 0.534022
548 1 43.026 14.4597 0 -0.104674
550 1 44.3103 14.4597 0 -0.413639
552 1 45.5947 14.4597 0 -0.620421
554 1 46.879 14.4597 0 -1.34479
556 1 48.1634 14.4597 0 1.00287
558 1 49.4477 14.4597 0 -1.67232
560 1 50.7321 14.4597 0 -0.0399353
561 1 0 15.572 0 -1.31975
563 1 1.28436 15.572 0 0.721125
565 1 2.56871 15.572 0 0.175783
567 1 3.85307 15.572 0 1.44902
569 1 5.13743 15.572 0 -1.18777
571 1 6.42178 15.572 0 1.52657
591 1 19.2654 15.572 0 1.01988
593 1 20.5497 15.572 0 1.07734
595 1 21.8341 15.572 0 -1.67957
597 1 23.1184 15.572 0 0.110605
599 1 24.4028 15.572 0 -0.289865
601 1 25.6871 15.572 0 -0.497887
603 1 26.9715 15.572 0 -1.25313
605 1 28.2558 15.572 0 1.19633
607 1 29.5402 15.572 0 0.717323
609 1 30.8246 15.572 0 -0.202353
611 1 32.1089 15.572 0 -0.895237
613 1 33.3933 15.572 0 -0.751524
615 1 34.6776 15.572 0 -0.850709
617 1 35.962 15.572 0 -0.842708
619 1 37.2463 15.572 0 -0.994554
621 1 38.5307 15.572 0 -0.935088
623 1 39.8151 15.572 0 -1.67455
625 1 41.0994 15.572 0 1.5851
627 1 42.3838 15.572 0 0.519469
629 1 43.6681 15.572 0 -0.168628
485 1 44.9525 15.572 0 0.985983
481 1 46.2368 15.572 0 -1.18559
406 1 47.5212 15.572 0 -0.629038
404 1 48.8056 15.572 0 0.742901
402 1 50.0899 15.572 0 0.410859
562 1 0.642178 16.6843 0 -1.44742
564 1 1.92654 16.6843 0 -1.74746
566 1 3.21089 16.6843 0 1.35437
568 1 4.49525 16.6843 0 -1.06829
570 1 5.77961 16.6843 0 -0.197878
572 1 7.06396 16.6843 0 -0.124925
590 1 18.6232 16.6843 0 -0.168705
592 1 19.9075 16.6843 0 1.57628
594 1 21.1919 16.6843 0 -1.5245
596 1 22.4762 16.6843 0 -1.40298
598 1 23.7606 16.6843 0 -0.44926
600 1 25.045 16.6843 0 -0.870509
602 1 26.3293 16.6843 0 -0.656292
604 1 27.6137 16.6843 0 -0.235135
606 1 28.898 16.6843 0 -1.67548
608 1 30.1824 16.6843 0 1.01092
610 1 31.4667 16.6843 0 -0.324885
612 1 32.7511 16.6843 0 0.152609
614 1 34.0355 16.6843 0 1.17327
616 1 35.3198 16.6843 0 0.700527
618 1 36.6042 16.6843 0 0.700176
620 1 37.8885 16.6843 0 0.309054
622 1 39.1729 16.6843 0 0.307826
624 1 40.4572 16.6843 0 1.39979
626 1 41.7416 16.6843 0 -0.65169
628 1 43.026 16.6843 0 0.322222
487 1 44.3103 16.6843 0 1.17463
483 1 45.5947 16.6843 0 1.04275
407 1 46.879 16.6843 0 0.87784
405 1 48.1634 16.6843 0 -0.728613
403 1 49.4477 16.6843 0 0.250111
401 1 50.7321 16.6843 0 0.827769
326 1 0 17.7966 0 0.312021
324 1 1.28436 17.7966 0 1.16579
322 1 2.56871 17.7966 0 -0.0612234
247 1 3.85307 17.7966 0 0.0359172
245 1 5.13743 17.7966 0 -0.5537
243 1 6.42178 17.7966 0 -1.64751
241 1 7.70614 17.7966 0 1.02321
588 1 8.9905 17.7966 0 -0.345796
586 1 10.2749 17.7966 0 0.116225
581 1 15.4123 17.7966 0 -1.59637
579 1 16.6966 17.7966 0 -0.381754
577 1 17.981 17.7966 0 1.64194
575 1 19.2654 17.7966 0 1.56552
573 1 20.5497 17.7966 0 0.406257
512 1 21.8341 17.7966 0 0.689506
510 1 23.1184 17.7966 0 -1.13492
508 1 24.4028 17.7966 0 0.641426
506 1 25.6871 17.7966 0 -0.578171
504 1 26.9715 17.7966 0 -0.687909
502 1 28.2558 17.7966 0 -0.584395
500 1 29.5402 17.7966 0 0.604038
498 1 30.8246 17.7966 0 0.0313961
496 1 32.1089 17.7966 0 1.40937
494 1 33.3933 17.7966 0 0.411584
492 1 34.6776 17.7966 0 -1.29456
490 1 35.962 17.7966 0 -1.00492
434 1 37.2463 17.7966 0 -1.63903
432 1 38.5307 17.7966 0 1.48253
430 1 39.8151 17.7966 0 0.385107
428 1 41.0994 17.7966 0 -0.627609
426 1 42.3838 17.7966 0 0.307668
424 1 43.6681 17.7966 0 -1.3413
422 1 44.9525 17.7966 0 -0.244571
420 1 46.2368 17.7966 0 1.20077
418 1 47.5212 17.7966 0 -1.56859
416 1 48.8056 17.7966 0 1.47507
414 1 50.0899 17.7966 0 0.187548
325 1 0.642178 18.9089 0 -1.4742
323 1 1.92654 18.9089 0 -1.09704
321 1 3.21089 18.9089 0 -1.33231
246 1 4.49525 18.9089 0 0.978658
244 1 5.77961 18.9089 0 -0.539988
242 1 7.06396 18.9089 0 -0.518207
589 1 8.34832 18.9089 0 0.386887
587 1 9.63268 18.9089 0 -0.603566
585 1 10.917 18.9089 0 0.557488
584 1 12.2014 18.9089 0 -0.0760864
583 1 13.4857 18.9089 0 0.835706
582 1 14.7701 18.9089 0 0.42595
580 1 16.0545 18.9089 0 0.56723
578 1 17.3388 18.9089 0 -1.56079
576 1 18.6232 18.9089 0 0.375813
574 1 19.9075 18.9089 0 0.879968
513 1 21.1919 18.9089 0 -0.1615
511 1 22.4762 18.9089 0 1.42385
509 1 23.7606 18.9089 0 1.56982
507 1 25.045 18.9089 0 -0.0757572
505 1 26.3293 18.9089 0 1.00781
503 1 27.6137 18.9089 0 0.500414
501 1 28.898 18.9089 0 0.934268
499 1 30.1824 18.9089 0 -0.334678
497 1 31.4667 18.9089 0 1.15037
495 1 32.7511 18.9089 0 -0.579793
493 1 34.0355 18.9089 0 1.46288
491 1 35.3198 18.9089 0 0.405201
489 1 36.6042 18.9089 0 1.52564
433 1 37.8885 18.9089 0 0.984259
431 1 39.1729 18.9089 0 -1.24661
429 1 40.4572 18.9089 0 0.257153
427 1 41.7416 18.9089 0 -1.56821
425 1 43.026 18.9089 0 1.30436
423 1 44.3103 18.9089 0 -0.772835
421 1 45.5947 18.9089 0 0.918565
419 1 46.879 18.9089 0 0.0416529
417 1 48.1634 18.9089 0 0.162967
415 1 49.4477 18.9089 0 1.30909
413 1 50.7321 18.9089 0 0.176999
412 3 0 20.0211 0 0
410 3 1.28436 20.0211 0 0
408 3 2.56871 20.0211 0 0
354 3 3.85307 20.0211 0 0
352 3 5.13743 20.0211 0 0
350 3 6.42178 20.0211 0 0
348 3 7.70614 20.0211 0 0
346 3 8.9905 20.0211 0 0
344 3 10.2749 20.0211 0 0
342 3 11.5592 20.0211 0 0
340 3 12.8436 20.0211 0 0
338 3 14.1279 20.0211 0 0
336 3 15.4123 20.0211 0 0
334 3 16.6966 20.0211 0 0
332 3 17.981 20.0211 0 0
330 3 19.2654 20.0211 0 0
328 3 20.5497 20.0211 0 0
274 3 21.8341 20.0211 0 0
272 3 23.1184 20.0211 0 0
270 3 24.4028 20.0211 0 0
268 3 25.6871 20.0211 0 0
266 3 26.9715 20.0211 0 0
264 3 28.2558 20.0211 0 0
262 3 29.5402 20.0211 0 0
260 3 30.8246 20.0211 0 0
258 3 32.1089 20.0211 0 0
256 3 33.3933 20.0211 0 0
254 3 34.6776 20.0211 0 0
252 3 35.962 20.0211 0 0
250 3 37.2463 20.0211 0 0
248 3 38.5307 20.0211 0 0
193 3 39.8151 20.0211 0 0
191 3 41.0994 20.0211 0 0
189 3 42.3838 20.0211 0 0
187 3 43.6681 20.0211 0 0
185 3 44.9525 20.0211 0 0
183 3 46.2368 20.0211 0 0
181 3 47.5212 20.0211 0 0
179 3 48.8056 20.0211 0 0
177 3 50.0899 20.0211 0 0
411 3 0.642178 21.1334 0 0
409 3 1.92654 21.1334 0 0
355 3 3.21089 21.1334 0 0
353 3 4.49525 21.1334 0 0
351 3 5.77961 21.1334 0 0
349 3 7.06396 21.1334 0 0
347 3 8.34832 21.1334 0 0
345 3 9.63268 21.1334 0 0
343 3 10.917 21.1334 0 0
341 3 12.2014 21.1334 0 0
339 3 13.4857 21.1334 0 0
337 3 14.7701 21.1334 0 0
335 3 16.0545 21.1334 0 0
333 3 17.3388 21.1334 0 0
331 3 18.6232 21.1334 0 0
329 3 19.9075 21.1334 0 0
327 3 21.1919 21.1334 0 0
273 3 22.4762 21.1334 0 0
271 3 23.7606 21.1334 0 0
269 3 25.045 21.1334 0 0
267 3 26.3293 21.1334 0 0
265 3 27.6137 21.1334 0 0
263 3 28.898 21.1334 0 0
261 3 30.1824 21.1334 0 0
259 3 31.4667 21.1334 0 0
257 3 32.7511 21.1334 0 0
255 3 34.0355 21.1334 0 0
253 3 35.3198 21.1334 0 0
251 3 36.6042 21.1334 0 0
249 3 37.8885 21.1334 0 0
194 3 39.1729 21.1334 0 0
192 3 40.4572 21.1334 0 0
190 3 41.7416 21.1334 0 0
188 3 43.026 21.1334 0 0
186 3 44.3103 21.1334 0 0
184 3 45.5947 21.1334 0 0
182 3 46.879 21.1334 0 0
180 3 48.1634 21.1334 0 0
178 3 49.4477 21.1334 0 0
176 3 50.7321 21.1334 0 0
175 3 0 22.2457 0 0
174 3 1.28436 22.2457 0 0
173 3 2.56871 22.2457 0 0
172 3 3.85307 22.2457 0 0
171 3 5.13743 22.2457 0 0
170 3 6.42178 22.2457 0 0
169 3 7.70614 22.2457 0 0
168 3 8.9905 22.2457 0 0
112 3 10.2749 22.2457 0 0
110 3 11.5592 22.2457 0 0
109 3 12.8436 22.2457 0 0
108 3 14.1279 22.2457 0 0
107 3 15.4123 22.2457 0 0
106 3 16.6966 22.2457 0 0
105 3 17.981 22.2457 0 0
104 3 19.2654 22.2457 0 0
103 3 20.5497 22.2457 0 0
102 3 21.8341 22.2457 0 0
101 3 23.1184 22.2457 0 0
100 3 24.4028 22.2457 0 0
99 3 25.6871 22.2457 0 0
98 3 26.9715 22.2457 0 0
97 3 28.2558 22.2457 0 0
96 3 29.5402 22.2457 0 0
95 3 30.8246 22.2457 0 0
94 3 32.1089 22.2457 0 0
93 3 33.3933 22.2457 0 0
92 3 34.6776 22.2457 0 0
90 3 35.962 22.2457 0 0
28 3 37.2463 22.2457 0 0
26 3 38.5307 22.2457 0 0
24 3 39.8151 22.2457 0 0
23 3 41.0994 22.2457 0 0
22 3 42.3838 22.2457 0 0
21 3 43.6681 22.2457 0 0
20 3 44.9525 22.2457 0 0
19 3 46.2368 22.2457 0 0
18 3 47.5212 22.2457 0 0
16 3 48.8056 22.2457 0 0
14 3 50.0899 22.2457 0 0
