LAMMPS (2 Aug 2023)
OMP_NUM_THREADS environment is not set. Defaulting to 1 thread. (src/comm.cpp:98)
  using 1 OpenMP thread(s) per MPI task
# 2d LJ flow in a channel around an obstacle

# ---------------
# flow variables
# ---------------
variable push index 0.4
variable damp index 0.8
variable compress index 1.2
# ---------------
# settings
# ---------------

units           lj
dimension	2
boundary	p s p

atom_style	atomic
neighbor	0.3 bin
neigh_modify	delay 5

# ---------------
# create simulation box and atoms
# ---------------

lattice		hex 0.7
Lattice spacing in x,y,z = 1.2843567 2.2245711 1.2843567
region		box block 0 40 0 10 -0.25 0.25
create_box	3 box
Created orthogonal box = (0 0 -0.32108918) to (51.374269 22.245711 0.32108918)
  1 by 1 by 1 MPI processor grid
create_atoms	1 box
Created 840 atoms
  using lattice units in orthogonal box = (0 -0.0022245711 -0.32108918) to (51.374269 22.247936 0.32108918)
  create_atoms CPU = 0.001 seconds

mass		* 1.0

# ---------------
# LJ potential
# ---------------

pair_style	lj/cut 1.12246
pair_coeff	* * 1.0 1.0 1.12246

# ---------------
# define groups
# ---------------

region	        1 block INF INF INF 1.25 INF INF
group		lower region 1
120 atoms in group lower
region		2 block INF INF 8.75 INF INF INF
group		upper region 2
120 atoms in group upper
group		boundary union lower upper
240 atoms in group boundary
group		flow subtract all boundary
600 atoms in group flow

set		group lower type 2
Setting atom values ...
  120 settings made for type
set		group upper type 3
Setting atom values ...
  120 settings made for type

# ---------------
# obstacle
# ---------------

region		void sphere 10 4 0 7.01
region		voidout sphere 10 4 0 7 side out

delete_atoms	region void
Deleted 187 atoms, new total = 653
fix             obstacle flow wall/region voidout harmonic 100 0 1.12246

# ---------------
# obstacle
# ---------------

region		void2 block  0 10.2 3 6.2 0 1.2
region		voidout2 block 0 10 3 6 0 1  side out

delete_atoms	region void2
Deleted 24 atoms, new total = 629
fix             obstacle2 flow wall/region voidout2 harmonic 100 0 1.12246

# ---------------
# initial velocities
# ---------------

velocity	boundary set 0.0 0.0 0.0
velocity	flow create 1.0 482748

# ---------------
# fixes for Poiseuille flow and viscous damping
# ---------------

fix		1 all nve
fix		2 lower setforce 0.0 0.0 0.0
fix		3 upper setforce 0.0 NULL 0.0

fix		4 upper aveforce 0.0 ${compress} 0.0
fix		4 upper aveforce 0.0 1.2 0.0
fix		5 flow addforce ${push} 0.0 0.0
fix		5 flow addforce 0.4 0.0 0.0
fix             6 flow viscous ${damp}
fix             6 flow viscous 0.8

fix		7 all enforce2d

# ---------------
# output
# ---------------

compute         tflow flow temp

thermo		1000
thermo_modify	temp tflow
WARNING: Temperature for thermo pressure is not for group all (src/thermo.cpp:527)

dump		1 all custom 500 dump.obstacle id type x y z vx

dump		2 all image 500 image.*.jpg type type 		zoom 1.6 adiam 1.5
dump_modify	2 pad 5

# command for Mac and Linux
dump            3 all movie 500 movie.mpg type type                 zoom 1.6 adiam 1.5

# command for Windows
#dump            3 all movie 500 movie.avi type type #                zoom 1.6 adiam 1.5

dump_modify	3 pad 5

# ---------------
# run
# ---------------

timestep	0.003
run		25000
Generated 0 of 3 mixed pair_coeff terms from geometric mixing rule
Neighbor list info ...
  update: every = 1 steps, delay = 5 steps, check = yes
  max neighbors/atom: 2000, page size: 100000
  master list distance cutoff = 1.42246
  ghost atom cutoff = 1.42246
  binsize = 0.71123, bins = 73 32 1
  1 neighbor lists, perpetual/occasional/extra = 1 0 0
  (1) pair lj/cut, perpetual
      attributes: half, newton on
      pair build: half/bin/atomonly/newton
      stencil: half/bin/2d
      bin: standard
Per MPI rank memory allocation (min/avg/max) = 3.054 | 3.054 | 3.054 Mbytes
   Step          Temp          E_pair         E_mol          TotEng         Press          Volume    
         0   1              0              0              0.64864865     0.35692861     1143.0857    
ERROR on proc 0: Particle outside surface of region used in fix wall/region (src/fix_wall_region.cpp:307)
Last command: run		25000
