ITEM: TIMESTEP
0
ITEM: NUMBER OF ATOMS
749
ITEM: BOX BOUNDS pp ss pp
0.0000000000000000e+00 5.1374269009840255e+01
-2.2245711031688635e-03 2.2247935602791809e+01
-3.2108918131150160e-01 3.2108918131150160e-01
ITEM: ATOMS id type x y z vx
1 2 0 0 0 0
3 2 1.28436 0 0 0
5 2 2.56871 0 0 0
7 2 3.85307 0 0 0
9 2 5.13743 0 0 0
11 2 6.42178 0 0 0
13 2 7.70614 0 0 0
15 2 8.9905 0 0 0
17 2 10.2749 0 0 0
19 2 11.5592 0 0 0
21 2 12.8436 0 0 0
23 2 14.1279 0 0 0
25 2 15.4123 0 0 0
27 2 16.6966 0 0 0
29 2 17.981 0 0 0
31 2 19.2654 0 0 0
33 2 20.5497 0 0 0
35 2 21.8341 0 0 0
37 2 23.1184 0 0 0
39 2 24.4028 0 0 0
41 2 25.6871 0 0 0
43 2 26.9715 0 0 0
45 2 28.2558 0 0 0
47 2 29.5402 0 0 0
49 2 30.8246 0 0 0
51 2 32.1089 0 0 0
53 2 33.3933 0 0 0
55 2 34.6776 0 0 0
57 2 35.962 0 0 0
59 2 37.2463 0 0 0
61 2 38.5307 0 0 0
63 2 39.8151 0 0 0
65 2 41.0994 0 0 0
67 2 42.3838 0 0 0
69 2 43.6681 0 0 0
71 2 44.9525 0 0 0
73 2 46.2368 0 0 0
75 2 47.5212 0 0 0
77 2 48.8056 0 0 0
79 2 50.0899 0 0 0
2 2 0.642178 1.11229 0 0
4 2 1.92654 1.11229 0 0
6 2 3.21089 1.11229 0 0
8 2 4.49525 1.11229 0 0
10 2 5.77961 1.11229 0 0
12 2 7.06396 1.11229 0 0
14 2 8.34832 1.11229 0 0
16 2 9.63268 1.11229 0 0
18 2 10.917 1.11229 0 0
20 2 12.2014 1.11229 0 0
22 2 13.4857 1.11229 0 0
24 2 14.7701 1.11229 0 0
26 2 16.0545 1.11229 0 0
28 2 17.3388 1.11229 0 0
30 2 18.6232 1.11229 0 0
32 2 19.9075 1.11229 0 0
34 2 21.1919 1.11229 0 0
36 2 22.4762 1.11229 0 0
38 2 23.7606 1.11229 0 0
40 2 25.045 1.11229 0 0
42 2 26.3293 1.11229 0 0
44 2 27.6137 1.11229 0 0
46 2 28.898 1.11229 0 0
48 2 30.1824 1.11229 0 0
50 2 31.4667 1.11229 0 0
52 2 32.7511 1.11229 0 0
54 2 34.0355 1.11229 0 0
56 2 35.3198 1.11229 0 0
58 2 36.6042 1.11229 0 0
60 2 37.8885 1.11229 0 0
62 2 39.1729 1.11229 0 0
64 2 40.4572 1.11229 0 0
66 2 41.7416 1.11229 0 0
68 2 43.026 1.11229 0 0
70 2 44.3103 1.11229 0 0
72 2 45.5947 1.11229 0 0
74 2 46.879 1.11229 0 0
76 2 48.1634 1.11229 0 0
78 2 49.4477 1.11229 0 0
80 2 50.7321 1.11229 0 0
81 2 0 2.22457 0 0
83 2 1.28436 2.22457 0 0
85 2 2.56871 2.22457 0 0
87 2 3.85307 2.22457 0 0
89 2 5.13743 2.22457 0 0
91 2 6.42178 2.22457 0 0
93 2 7.70614 2.22457 0 0
95 2 8.9905 2.22457 0 0
97 2 10.2749 2.22457 0 0
99 2 11.5592 2.22457 0 0
101 2 12.8436 2.22457 0 0
103 2 14.1279 2.22457 0 0
105 2 15.4123 2.22457 0 0
107 2 16.6966 2.22457 0 0
109 2 17.981 2.22457 0 0
111 2 19.2654 2.22457 0 0
113 2 20.5497 2.22457 0 0
115 2 21.8341 2.22457 0 0
117 2 23.1184 2.22457 0 0
119 2 24.4028 2.22457 0 0
121 2 25.6871 2.22457 0 0
123 2 26.9715 2.22457 0 0
125 2 28.2558 2.22457 0 0
127 2 29.5402 2.22457 0 0
129 2 30.8246 2.22457 0 0
131 2 32.1089 2.22457 0 0
133 2 33.3933 2.22457 0 0
135 2 34.6776 2.22457 0 0
137 2 35.962 2.22457 0 0
139 2 37.2463 2.22457 0 0
141 2 38.5307 2.22457 0 0
143 2 39.8151 2.22457 0 0
145 2 41.0994 2.22457 0 0
147 2 42.3838 2.22457 0 0
149 2 43.6681 2.22457 0 0
151 2 44.9525 2.22457 0 0
153 2 46.2368 2.22457 0 0
155 2 47.5212 2.22457 0 0
157 2 48.8056 2.22457 0 0
159 2 50.0899 2.22457 0 0
82 1 0.642178 3.33686 0 0.452788
84 1 1.92654 3.33686 0 1.3883
86 1 3.21089 3.33686 0 -0.736126
88 1 4.49525 3.33686 0 -1.36202
90 1 5.77961 3.33686 0 -0.729331
92 1 7.06396 3.33686 0 1.29193
94 1 8.34832 3.33686 0 -1.07661
108 1 17.3388 3.33686 0 -0.488914
110 1 18.6232 3.33686 0 -0.593518
112 1 19.9075 3.33686 0 0.472761
114 1 21.1919 3.33686 0 -0.0997447
116 1 22.4762 3.33686 0 0.1145
118 1 23.7606 3.33686 0 -1.57892
120 1 25.045 3.33686 0 -0.906584
122 1 26.3293 3.33686 0 0.923933
124 1 27.6137 3.33686 0 -0.279141
126 1 28.898 3.33686 0 0.592802
128 1 30.1824 3.33686 0 0.745621
130 1 31.4667 3.33686 0 0.734844
132 1 32.7511 3.33686 0 -0.220977
134 1 34.0355 3.33686 0 0.0524531
136 1 35.3198 3.33686 0 1.4254
138 1 36.6042 3.33686 0 1.47487
140 1 37.8885 3.33686 0 1.41494
142 1 39.1729 3.33686 0 -0.346362
144 1 40.4572 3.33686 0 -1.01782
146 1 41.7416 3.33686 0 -1.33481
148 1 43.026 3.33686 0 1.187
150 1 44.3103 3.33686 0 0.900421
152 1 45.5947 3.33686 0 -0.530712
154 1 46.879 3.33686 0 -0.713914
156 1 48.1634 3.33686 0 -0.773682
158 1 49.4477 3.33686 0 -1.69885
160 1 50.7321 3.33686 0 1.60575
161 1 0 4.44914 0 0.66199
163 1 1.28436 4.44914 0 -0.54971
165 1 2.56871 4.44914 0 -1.52966
167 1 3.85307 4.44914 0 -1.68143
169 1 5.13743 4.44914 0 -1.58032
171 1 6.42178 4.44914 0 1.39065
173 1 7.70614 4.44914 0 1.63908
189 1 17.981 4.44914 0 0.48586
191 1 19.2654 4.44914 0 1.6336
193 1 20.5497 4.44914 0 -1.48914
195 1 21.8341 4.44914 0 -1.20061
197 1 23.1184 4.44914 0 1.18243
199 1 24.4028 4.44914 0 1.45887
201 1 25.6871 4.44914 0 -1.24595
203 1 26.9715 4.44914 0 -1.03098
205 1 28.2558 4.44914 0 -1.43673
207 1 29.5402 4.44914 0 0.292019
209 1 30.8246 4.44914 0 0.885516
211 1 32.1089 4.44914 0 -0.91713
213 1 33.3933 4.44914 0 1.49744
215 1 34.6776 4.44914 0 -1.25447
217 1 35.962 4.44914 0 -0.829627
219 1 37.2463 4.44914 0 0.538574
221 1 38.5307 4.44914 0 -0.510736
223 1 39.8151 4.44914 0 0.222142
225 1 41.0994 4.44914 0 0.201083
227 1 42.3838 4.44914 0 1.67837
229 1 43.6681 4.44914 0 1.08428
231 1 44.9525 4.44914 0 1.4629
233 1 46.2368 4.44914 0 0.184464
235 1 47.5212 4.44914 0 0.910842
237 1 48.8056 4.44914 0 -0.285565
239 1 50.0899 4.44914 0 1.60964
162 1 0.642178 5.56143 0 -0.732468
164 1 1.92654 5.56143 0 -0.789989
166 1 3.21089 5.56143 0 -0.368627
168 1 4.49525 5.56143 0 -0.537564
170 1 5.77961 5.56143 0 0.711397
172 1 7.06396 5.56143 0 0.126369
190 1 18.6232 5.56143 0 -1.15429
192 1 19.9075 5.56143 0 -0.644573
194 1 21.1919 5.56143 0 0.635918
196 1 22.4762 5.56143 0 -1.28909
198 1 23.7606 5.56143 0 1.39364
200 1 25.045 5.56143 0 0.829678
202 1 26.3293 5.56143 0 -1.37523
204 1 27.6137 5.56143 0 -1.62405
206 1 28.898 5.56143 0 0.0739997
208 1 30.1824 5.56143 0 1.18321
210 1 31.4667 5.56143 0 -1.65646
212 1 32.7511 5.56143 0 1.58138
214 1 34.0355 5.56143 0 -1.133
216 1 35.3198 5.56143 0 1.66233
218 1 36.6042 5.56143 0 0.814978
220 1 37.8885 5.56143 0 1.66773
222 1 39.1729 5.56143 0 -0.598915
224 1 40.4572 5.56143 0 0.696501
226 1 41.7416 5.56143 0 -0.244491
228 1 43.026 5.56143 0 0.832158
230 1 44.3103 5.56143 0 -0.462428
232 1 45.5947 5.56143 0 -0.774852
234 1 46.879 5.56143 0 -0.545121
236 1 48.1634 5.56143 0 -1.47937
238 1 49.4477 5.56143 0 -1.4074
240 1 50.7321 5.56143 0 0.169774
241 1 0 6.67371 0 0.999162
243 1 1.28436 6.67371 0 -1.62319
245 1 2.56871 6.67371 0 -0.549186
247 1 3.85307 6.67371 0 0.0297519
249 1 5.13743 6.67371 0 0.233061
251 1 6.42178 6.67371 0 0.766584
271 1 19.2654 6.67371 0 0.124677
273 1 20.5497 6.67371 0 0.325052
275 1 21.8341 6.67371 0 0.660245
277 1 23.1184 6.67371 0 0.408684
279 1 24.4028 6.67371 0 -1.39997
281 1 25.6871 6.67371 0 0.0950312
283 1 26.9715 6.67371 0 -0.521161
285 1 28.2558 6.67371 0 -0.362294
287 1 29.5402 6.67371 0 -0.628958
289 1 30.8246 6.67371 0 -1.06292
291 1 32.1089 6.67371 0 1.44465
293 1 33.3933 6.67371 0 0.117266
295 1 34.6776 6.67371 0 -1.31833
297 1 35.962 6.67371 0 -0.434911
299 1 37.2463 6.67371 0 1.48261
301 1 38.5307 6.67371 0 0.232786
303 1 39.8151 6.67371 0 -1.53325
305 1 41.0994 6.67371 0 1.63896
307 1 42.3838 6.67371 0 -0.472114
309 1 43.6681 6.67371 0 1.04052
311 1 44.9525 6.67371 0 1.24596
313 1 46.2368 6.67371 0 -0.972669
315 1 47.5212 6.67371 0 0.0262557
317 1 48.8056 6.67371 0 1.05846
319 1 50.0899 6.67371 0 0.0899901
242 1 0.642178 7.786 0 -0.514336
244 1 1.92654 7.786 0 -0.535723
246 1 3.21089 7.786 0 0.955418
248 1 4.49525 7.786 0 1.67087
250 1 5.77961 7.786 0 -1.65758
272 1 19.9075 7.786 0 0.866521
274 1 21.1919 7.786 0 -0.394241
276 1 22.4762 7.786 0 0.367351
278 1 23.7606 7.786 0 -1.55701
280 1 25.045 7.786 0 1.38535
282 1 26.3293 7.786 0 -1.27668
284 1 27.6137 7.786 0 -0.450572
286 1 28.898 7.786 0 -0.810554
288 1 30.1824 7.786 0 -0.637224
290 1 31.4667 7.786 0 1.18738
292 1 32.7511 7.786 0 -1.64764
294 1 34.0355 7.786 0 -1.37113
296 1 35.3198 7.786 0 0.521088
298 1 36.6042 7.786 0 -1.22006
300 1 37.8885 7.786 0 -0.226319
302 1 39.1729 7.786 0 1.56117
304 1 40.4572 7.786 0 0.648438
306 1 41.7416 7.786 0 1.35891
308 1 43.026 7.786 0 0.762131
310 1 44.3103 7.786 0 -1.39576
312 1 45.5947 7.786 0 0.856558
314 1 46.879 7.786 0 -1.39173
316 1 48.1634 7.786 0 -1.2553
318 1 49.4477 7.786 0 0.571548
320 1 50.7321 7.786 0 0.541237
321 1 0 8.89828 0 -1.3137
323 1 1.28436 8.89828 0 -1.08269
325 1 2.56871 8.89828 0 -1.45301
327 1 3.85307 8.89828 0 -0.313447
329 1 5.13743 8.89828 0 0.880775
353 1 20.5497 8.89828 0 -0.831086
355 1 21.8341 8.89828 0 1.42239
357 1 23.1184 8.89828 0 0.578189
359 1 24.4028 8.89828 0 -0.322726
361 1 25.6871 8.89828 0 -1.51733
363 1 26.9715 8.89828 0 1.44692
365 1 28.2558 8.89828 0 -1.17497
367 1 29.5402 8.89828 0 1.48836
369 1 30.8246 8.89828 0 1.46441
371 1 32.1089 8.89828 0 1.14544
373 1 33.3933 8.89828 0 1.62701
375 1 34.6776 8.89828 0 -0.259323
377 1 35.962 8.89828 0 -1.16269
379 1 37.2463 8.89828 0 0.941759
381 1 38.5307 8.89828 0 1.46389
383 1 39.8151 8.89828 0 0.771737
385 1 41.0994 8.89828 0 0.386363
387 1 42.3838 8.89828 0 -1.26401
389 1 43.6681 8.89828 0 0.671117
391 1 44.9525 8.89828 0 1.20527
393 1 46.2368 8.89828 0 1.52514
395 1 47.5212 8.89828 0 0.624404
397 1 48.8056 8.89828 0 1.38995
399 1 50.0899 8.89828 0 -0.675507
322 1 0.642178 10.0106 0 -0.0656293
324 1 1.92654 10.0106 0 1.13916
326 1 3.21089 10.0106 0 0.300855
328 1 4.49525 10.0106 0 -0.312643
330 1 5.77961 10.0106 0 0.724806
352 1 19.9075 10.0106 0 -1.1761
354 1 21.1919 10.0106 0 1.01522
356 1 22.4762 10.0106 0 -0.979763
358 1 23.7606 10.0106 0 -0.936002
360 1 25.045 10.0106 0 -1.57362
362 1 26.3293 10.0106 0 -0.673358
364 1 27.6137 10.0106 0 1.42655
366 1 28.898 10.0106 0 -1.39829
368 1 30.1824 10.0106 0 1.52015
370 1 31.4667 10.0106 0 -0.719982
372 1 32.7511 10.0106 0 1.49062
374 1 34.0355 10.0106 0 -0.302971
376 1 35.3198 10.0106 0 -0.991767
378 1 36.6042 10.0106 0 0.308232
380 1 37.8885 10.0106 0 0.78813
382 1 39.1729 10.0106 0 -1.37035
384 1 40.4572 10.0106 0 0.52556
386 1 41.7416 10.0106 0 -1.14334
388 1 43.026 10.0106 0 0.156171
390 1 44.3103 10.0106 0 1.15689
392 1 45.5947 10.0106 0 -1.44454
394 1 46.879 10.0106 0 0.570859
396 1 48.1634 10.0106 0 -0.474819
398 1 49.4477 10.0106 0 0.299331
400 1 50.7321 10.0106 0 -1.37233
401 1 0 11.1229 0 0.807262
403 1 1.28436 11.1229 0 0.240067
405 1 2.56871 11.1229 0 -0.720931
407 1 3.85307 11.1229 0 0.856425
409 1 5.13743 11.1229 0 0.326808
411 1 6.42178 11.1229 0 -1.04139
431 1 19.2654 11.1229 0 -1.22954
433 1 20.5497 11.1229 0 0.960917
435 1 21.8341 11.1229 0 -0.997423
437 1 23.1184 11.1229 0 -0.586676
439 1 24.4028 11.1229 0 0.573233
441 1 25.6871 11.1229 0 -0.459251
443 1 26.9715 11.1229 0 0.898565
445 1 28.2558 11.1229 0 -0.999642
447 1 29.5402 11.1229 0 0.814521
449 1 30.8246 11.1229 0 0.708712
451 1 32.1089 11.1229 0 0.117168
453 1 33.3933 11.1229 0 -1.37067
455 1 34.6776 11.1229 0 0.765857
457 1 35.962 11.1229 0 1.24821
459 1 37.2463 11.1229 0 -0.546782
461 1 38.5307 11.1229 0 0.496617
463 1 39.8151 11.1229 0 1.71043
465 1 41.0994 11.1229 0 -0.29556
467 1 42.3838 11.1229 0 1.00428
469 1 43.6681 11.1229 0 -1.6328
471 1 44.9525 11.1229 0 -0.717182
473 1 46.2368 11.1229 0 1.26997
475 1 47.5212 11.1229 0 -0.195836
477 1 48.8056 11.1229 0 -0.769757
479 1 50.0899 11.1229 0 0.556816
402 1 0.642178 12.2351 0 0.397903
404 1 1.92654 12.2351 0 0.723931
406 1 3.21089 12.2351 0 -0.62316
408 1 4.49525 12.2351 0 1.06393
410 1 5.77961 12.2351 0 0.269895
412 1 7.06396 12.2351 0 -0.976465
430 1 18.6232 12.2351 0 0.372617
432 1 19.9075 12.2351 0 1.45017
434 1 21.1919 12.2351 0 -1.61485
436 1 22.4762 12.2351 0 1.5117
438 1 23.7606 12.2351 0 0.792302
440 1 25.045 12.2351 0 -0.177328
442 1 26.3293 12.2351 0 -0.465947
444 1 27.6137 12.2351 0 1.45536
446 1 28.898 12.2351 0 0.36652
448 1 30.1824 12.2351 0 -1.70089
450 1 31.4667 12.2351 0 0.366122
452 1 32.7511 12.2351 0 1.27785
454 1 34.0355 12.2351 0 1.15993
456 1 35.3198 12.2351 0 0.931004
458 1 36.6042 12.2351 0 -0.483936
460 1 37.8885 12.2351 0 -0.0583765
462 1 39.1729 12.2351 0 0.158556
464 1 40.4572 12.2351 0 0.00230158
466 1 41.7416 12.2351 0 -0.688977
468 1 43.026 12.2351 0 -1.3709
470 1 44.3103 12.2351 0 0.103701
472 1 45.5947 12.2351 0 -1.58357
474 1 46.879 12.2351 0 -0.565359
476 1 48.1634 12.2351 0 -0.0118514
478 1 49.4477 12.2351 0 -0.877019
480 1 50.7321 12.2351 0 0.760712
481 1 0 13.3474 0 -1.16963
483 1 1.28436 13.3474 0 1.01835
485 1 2.56871 13.3474 0 0.96261
487 1 3.85307 13.3474 0 1.14784
489 1 5.13743 13.3474 0 1.4925
491 1 6.42178 13.3474 0 0.392347
493 1 7.70614 13.3474 0 1.43087
509 1 17.981 13.3474 0 1.53587
511 1 19.2654 13.3474 0 1.39255
513 1 20.5497 13.3474 0 -0.164089
515 1 21.8341 13.3474 0 -0.199476
517 1 23.1184 13.3474 0 0.356136
519 1 24.4028 13.3474 0 -0.24744
521 1 25.6871 13.3474 0 1.25903
523 1 26.9715 13.3474 0 0.134161
525 1 28.2558 13.3474 0 0.533632
527 1 29.5402 13.3474 0 -0.653992
529 1 30.8246 13.3474 0 -1.31545
531 1 32.1089 13.3474 0 -1.62997
533 1 33.3933 13.3474 0 0.546946
535 1 34.6776 13.3474 0 -0.825857
537 1 35.962 13.3474 0 -0.509109
539 1 37.2463 13.3474 0 0.3853
541 1 38.5307 13.3474 0 -0.667525
543 1 39.8151 13.3474 0 -1.66471
545 1 41.0994 13.3474 0 -1.03591
547 1 42.3838 13.3474 0 0.783195
549 1 43.6681 13.3474 0 0.874104
551 1 44.9525 13.3474 0 -1.48152
553 1 46.2368 13.3474 0 1.17255
555 1 47.5212 13.3474 0 1.62522
557 1 48.8056 13.3474 0 -0.722582
559 1 50.0899 13.3474 0 0.112758
482 1 0.642178 14.4597 0 1.28687
484 1 1.92654 14.4597 0 0.0472153
486 1 3.21089 14.4597 0 1.69384
488 1 4.49525 14.4597 0 -1.45
490 1 5.77961 14.4597 0 -0.992236
492 1 7.06396 14.4597 0 -1.27663
494 1 8.34832 14.4597 0 0.398615
508 1 17.3388 14.4597 0 0.624293
510 1 18.6232 14.4597 0 -1.11988
512 1 19.9075 14.4597 0 0.671503
514 1 21.1919 14.4597 0 -1.6732
516 1 22.4762 14.4597 0 -0.375829
518 1 23.7606 14.4597 0 -0.499328
520 1 25.045 14.4597 0 -0.746629
522 1 26.3293 14.4597 0 1.25234
524 1 27.6137 14.4597 0 0.313037
526 1 28.898 14.4597 0 -0.14243
528 1 30.1824 14.4597 0 0.459251
530 1 31.4667 14.4597 0 -1.43953
532 1 32.7511 14.4597 0 -0.24761
534 1 34.0355 14.4597 0 -0.309881
536 1 35.3198 14.4597 0 1.65585
538 1 36.6042 14.4597 0 -0.689325
540 1 37.8885 14.4597 0 -0.831313
542 1 39.1729 14.4597 0 -1.54287
544 1 40.4572 14.4597 0 -1.42164
546 1 41.7416 14.4597 0 0.518835
548 1 43.026 14.4597 0 -0.108292
550 1 44.3103 14.4597 0 -0.411662
552 1 45.5947 14.4597 0 -0.614699
554 1 46.879 14.4597 0 -1.32595
556 1 48.1634 14.4597 0 0.979195
558 1 49.4477 14.4597 0 -1.64755
560 1 50.7321 14.4597 0 -0.0447267
561 1 0 15.572 0 -1.30136
563 1 1.28436 15.572 0 0.702549
565 1 2.56871 15.572 0 0.167084
567 1 3.85307 15.572 0 1.41726
569 1 5.13743 15.572 0 -1.17177
571 1 6.42178 15.572 0 1.4934
573 1 7.70614 15.572 0 0.393384
575 1 8.9905 15.572 0 1.53165
577 1 10.2749 15.572 0 1.60669
579 1 11.5592 15.572 0 -0.380354
581 1 12.8436 15.572 0 -1.57297
583 1 14.1279 15.572 0 0.815055
585 1 15.4123 15.572 0 0.541876
587 1 16.6966 15.572 0 -0.598149
589 1 17.981 15.572 0 0.374365
591 1 19.2654 15.572 0 0.995889
593 1 20.5497 15.572 0 1.05232
595 1 21.8341 15.572 0 -1.65467
597 1 23.1184 15.572 0 0.103087
599 1 24.4028 15.572 0 -0.290129
601 1 25.6871 15.572 0 -0.494384
603 1 26.9715 15.572 0 -1.23595
605 1 28.2558 15.572 0 1.16915
607 1 29.5402 15.572 0 0.698816
609 1 30.8246 15.572 0 -0.204203
611 1 32.1089 15.572 0 -0.884537
613 1 33.3933 15.572 0 -0.743427
615 1 34.6776 15.572 0 -0.840815
617 1 35.962 15.572 0 -0.83296
619 1 37.2463 15.572 0 -0.982055
621 1 38.5307 15.572 0 -0.923666
623 1 39.8151 15.572 0 -1.64973
625 1 41.0994 15.572 0 1.55088
627 1 42.3838 15.572 0 0.504545
629 1 43.6681 15.572 0 -0.171088
631 1 44.9525 15.572 0 -0.860655
633 1 46.2368 15.572 0 -1.04935
635 1 47.5212 15.572 0 0.639987
637 1 48.8056 15.572 0 0.731408
639 1 50.0899 15.572 0 -1.37296
562 1 0.642178 16.6843 0 -1.42672
564 1 1.92654 16.6843 0 -1.72133
566 1 3.21089 16.6843 0 1.32432
568 1 4.49525 16.6843 0 -1.05446
570 1 5.77961 16.6843 0 -0.199809
572 1 7.06396 16.6843 0 -0.128177
574 1 8.34832 16.6843 0 0.858515
576 1 9.63268 16.6843 0 0.363491
578 1 10.917 16.6843 0 -1.53803
580 1 12.2014 16.6843 0 0.551441
582 1 13.4857 16.6843 0 0.412721
584 1 14.7701 16.6843 0 -0.080223
586 1 16.0545 16.6843 0 0.108606
588 1 17.3388 16.6843 0 -0.345048
590 1 18.6232 16.6843 0 -0.171164
592 1 19.9075 16.6843 0 1.54222
594 1 21.1919 16.6843 0 -1.5024
596 1 22.4762 16.6843 0 -1.38309
598 1 23.7606 16.6843 0 -0.446638
600 1 25.045 16.6843 0 -0.860257
602 1 26.3293 16.6843 0 -0.64992
604 1 27.6137 16.6843 0 -0.236391
606 1 28.898 16.6843 0 -1.65065
608 1 30.1824 16.6843 0 0.987094
610 1 31.4667 16.6843 0 -0.324515
612 1 32.7511 16.6843 0 0.14433
614 1 34.0355 16.6843 0 1.1465
616 1 35.3198 16.6843 0 0.682324
618 1 36.6042 16.6843 0 0.68198
620 1 37.8885 16.6843 0 0.297942
622 1 39.1729 16.6843 0 0.296736
624 1 40.4572 16.6843 0 1.36893
626 1 41.7416 16.6843 0 -0.645401
628 1 43.026 16.6843 0 0.310871
630 1 44.3103 16.6843 0 1.52585
632 1 45.5947 16.6843 0 -0.999054
634 1 46.879 16.6843 0 1.07217
636 1 48.1634 16.6843 0 -0.0506731
638 1 49.4477 16.6843 0 0.82228
640 1 50.7321 16.6843 0 -0.045865
641 1 0 17.7966 0 -0.0162471
643 1 1.28436 17.7966 0 -1.006
645 1 2.56871 17.7966 0 0.980996
647 1 3.85307 17.7966 0 0.305018
649 1 5.13743 17.7966 0 -0.507982
651 1 6.42178 17.7966 0 1.47395
653 1 7.70614 17.7966 0 0.416094
655 1 8.9905 17.7966 0 -1.00168
657 1 10.2749 17.7966 0 -0.209808
659 1 11.5592 17.7966 0 1.40921
661 1 12.8436 17.7966 0 -1.01156
663 1 14.1279 17.7966 0 1.55578
665 1 15.4123 17.7966 0 0.443758
667 1 16.6966 17.7966 0 -0.669959
669 1 17.981 17.7966 0 1.18805
671 1 19.2654 17.7966 0 -1.39254
673 1 20.5497 17.7966 0 0.392259
675 1 21.8341 17.7966 0 -1.07904
677 1 23.1184 17.7966 0 1.63748
679 1 24.4028 17.7966 0 -1.52527
681 1 25.6871 17.7966 0 0.955559
683 1 26.9715 17.7966 0 -0.101165
685 1 28.2558 17.7966 0 -0.573609
687 1 29.5402 17.7966 0 0.434969
689 1 30.8246 17.7966 0 -1.35187
691 1 32.1089 17.7966 0 -1.2479
693 1 33.3933 17.7966 0 -1.42159
695 1 34.6776 17.7966 0 1.05471
697 1 35.962 17.7966 0 -0.871471
699 1 37.2463 17.7966 0 -1.48011
701 1 38.5307 17.7966 0 1.17393
703 1 39.8151 17.7966 0 -0.933255
705 1 41.0994 17.7966 0 1.61083
707 1 42.3838 17.7966 0 1.41192
709 1 43.6681 17.7966 0 -0.104066
711 1 44.9525 17.7966 0 -1.70311
713 1 46.2368 17.7966 0 -0.651616
715 1 47.5212 17.7966 0 -0.916038
717 1 48.8056 17.7966 0 1.60099
719 1 50.0899 17.7966 0 0.94854
642 1 0.642178 18.9089 0 -1.11506
644 1 1.92654 18.9089 0 1.21022
646 1 3.21089 18.9089 0 1.13082
648 1 4.49525 18.9089 0 0.500784
650 1 5.77961 18.9089 0 -1.08649
652 1 7.06396 18.9089 0 -1.62729
654 1 8.34832 18.9089 0 0.665333
656 1 9.63268 18.9089 0 0.116314
658 1 10.917 18.9089 0 1.49545
660 1 12.2014 18.9089 0 -0.998987
662 1 13.4857 18.9089 0 1.44389
664 1 14.7701 18.9089 0 -1.44422
666 1 16.0545 18.9089 0 -1.29614
668 1 17.3388 18.9089 0 -0.517664
670 1 18.6232 18.9089 0 -0.0665916
672 1 19.9075 18.9089 0 1.63132
674 1 21.1919 18.9089 0 -0.556193
676 1 22.4762 18.9089 0 -0.347778
678 1 23.7606 18.9089 0 1.70119
680 1 25.045 18.9089 0 -0.115997
682 1 26.3293 18.9089 0 -0.92095
684 1 27.6137 18.9089 0 0.688434
686 1 28.898 18.9089 0 1.17277
688 1 30.1824 18.9089 0 1.17373
690 1 31.4667 18.9089 0 -1.60667
692 1 32.7511 18.9089 0 -1.31297
694 1 34.0355 18.9089 0 0.816016
696 1 35.3198 18.9089 0 -0.764748
698 1 36.6042 18.9089 0 1.68135
700 1 37.8885 18.9089 0 -1.54111
702 1 39.1729 18.9089 0 1.32925
704 1 40.4572 18.9089 0 0.15429
706 1 41.7416 18.9089 0 -1.02257
708 1 43.026 18.9089 0 -0.00797663
710 1 44.3103 18.9089 0 0.816791
712 1 45.5947 18.9089 0 -0.244233
714 1 46.879 18.9089 0 1.43035
716 1 48.1634 18.9089 0 1.4971
718 1 49.4477 18.9089 0 -0.00733979
720 1 50.7321 18.9089 0 -0.733625
721 3 0 20.0211 0 0
723 3 1.28436 20.0211 0 0
725 3 2.56871 20.0211 0 0
727 3 3.85307 20.0211 0 0
729 3 5.13743 20.0211 0 0
731 3 6.42178 20.0211 0 0
733 3 7.70614 20.0211 0 0
735 3 8.9905 20.0211 0 0
737 3 10.2749 20.0211 0 0
739 3 11.5592 20.0211 0 0
741 3 12.8436 20.0211 0 0
743 3 14.1279 20.0211 0 0
745 3 15.4123 20.0211 0 0
747 3 16.6966 20.0211 0 0
749 3 17.981 20.0211 0 0
506 3 19.2654 20.0211 0 0
504 3 20.5497 20.0211 0 0
502 3 21.8341 20.0211 0 0
500 3 23.1184 20.0211 0 0
498 3 24.4028 20.0211 0 0
496 3 25.6871 20.0211 0 0
429 3 26.9715 20.0211 0 0
427 3 28.2558 20.0211 0 0
425 3 29.5402 20.0211 0 0
423 3 30.8246 20.0211 0 0
421 3 32.1089 20.0211 0 0
419 3 33.3933 20.0211 0 0
417 3 34.6776 20.0211 0 0
415 3 35.962 20.0211 0 0
413 3 37.2463 20.0211 0 0
350 3 38.5307 20.0211 0 0
348 3 39.8151 20.0211 0 0
346 3 41.0994 20.0211 0 0
344 3 42.3838 20.0211 0 0
342 3 43.6681 20.0211 0 0
340 3 44.9525 20.0211 0 0
338 3 46.2368 20.0211 0 0
336 3 47.5212 20.0211 0 0
334 3 48.8056 20.0211 0 0
332 3 50.0899 20.0211 0 0
722 3 0.642178 21.1334 0 0
724 3 1.92654 21.1334 0 0
726 3 3.21089 21.1334 0 0
728 3 4.49525 21.1334 0 0
730 3 5.77961 21.1334 0 0
732 3 7.06396 21.1334 0 0
734 3 8.34832 21.1334 0 0
736 3 9.63268 21.1334 0 0
738 3 10.917 21.1334 0 0
740 3 12.2014 21.1334 0 0
742 3 13.4857 21.1334 0 0
744 3 14.7701 21.1334 0 0
746 3 16.0545 21.1334 0 0
748 3 17.3388 21.1334 0 0
507 3 18.6232 21.1334 0 0
505 3 19.9075 21.1334 0 0
503 3 21.1919 21.1334 0 0
501 3 22.4762 21.1334 0 0
499 3 23.7606 21.1334 0 0
497 3 25.045 21.1334 0 0
495 3 26.3293 21.1334 0 0
428 3 27.6137 21.1334 0 0
426 3 28.898 21.1334 0 0
424 3 30.1824 21.1334 0 0
422 3 31.4667 21.1334 0 0
420 3 32.7511 21.1334 0 0
418 3 34.0355 21.1334 0 0
416 3 35.3198 21.1334 0 0
414 3 36.6042 21.1334 0 0
351 3 37.8885 21.1334 0 0
349 3 39.1729 21.1334 0 0
347 3 40.4572 21.1334 0 0
345 3 41.7416 21.1334 0 0
343 3 43.026 21.1334 0 0
341 3 44.3103 21.1334 0 0
339 3 45.5947 21.1334 0 0
337 3 46.879 21.1334 0 0
335 3 48.1634 21.1334 0 0
333 3 49.4477 21.1334 0 0
331 3 50.7321 21.1334 0 0
270 3 0 22.2457 0 0
269 3 1.28436 22.2457 0 0
268 3 2.56871 22.2457 0 0
267 3 3.85307 22.2457 0 0
266 3 5.13743 22.2457 0 0
265 3 6.42178 22.2457 0 0
264 3 7.70614 22.2457 0 0
263 3 8.9905 22.2457 0 0
262 3 10.2749 22.2457 0 0
261 3 11.5592 22.2457 0 0
260 3 12.8436 22.2457 0 0
259 3 14.1279 22.2457 0 0
258 3 15.4123 22.2457 0 0
257 3 16.6966 22.2457 0 0
256 3 17.981 22.2457 0 0
255 3 19.2654 22.2457 0 0
254 3 20.5497 22.2457 0 0
253 3 21.8341 22.2457 0 0
252 3 23.1184 22.2457 0 0
188 3 24.4028 22.2457 0 0
187 3 25.6871 22.2457 0 0
186 3 26.9715 22.2457 0 0
185 3 28.2558 22.2457 0 0
184 3 29.5402 22.2457 0 0
183 3 30.8246 22.2457 0 0
182 3 32.1089 22.2457 0 0
181 3 33.3933 22.2457 0 0
180 3 34.6776 22.2457 0 0
179 3 35.962 22.2457 0 0
178 3 37.2463 22.2457 0 0
177 3 38.5307 22.2457 0 0
176 3 39.8151 22.2457 0 0
175 3 41.0994 22.2457 0 0
174 3 42.3838 22.2457 0 0
106 3 43.6681 22.2457 0 0
104 3 44.9525 22.2457 0 0
102 3 46.2368 22.2457 0 0
100 3 47.5212 22.2457 0 0
98 3 48.8056 22.2457 0 0
96 3 50.0899 22.2457 0 0
ITEM: TIMESTEP
500
ITEM: NUMBER OF ATOMS
749
ITEM: BOX BOUNDS pp ss pp
0.0000000000000000e+00 5.1374269009840255e+01
-2.2245711031688635e-03 2.4313703231876701e+01
-3.2108918131150160e-01 3.2108918131150160e-01
ITEM: ATOMS id type x y z vx
1 2 0 0 0 0
3 2 1.28436 0 0 0
5 2 2.56871 0 0 0
7 2 3.85307 0 0 0
9 2 5.13743 0 0 0
11 2 6.42178 0 0 0
13 2 7.70614 0 0 0
15 2 8.9905 0 0 0
17 2 10.2749 0 0 0
19 2 11.5592 0 0 0
21 2 12.8436 0 0 0
23 2 14.1279 0 0 0
25 2 15.4123 0 0 0
27 2 16.6966 0 0 0
29 2 17.981 0 0 0
31 2 19.2654 0 0 0
33 2 20.5497 0 0 0
35 2 21.8341 0 0 0
37 2 23.1184 0 0 0
39 2 24.4028 0 0 0
41 2 25.6871 0 0 0
43 2 26.9715 0 0 0
45 2 28.2558 0 0 0
47 2 29.5402 0 0 0
49 2 30.8246 0 0 0
51 2 32.1089 0 0 0
53 2 33.3933 0 0 0
55 2 34.6776 0 0 0
57 2 35.962 0 0 0
59 2 37.2463 0 0 0
61 2 38.5307 0 0 0
63 2 39.8151 0 0 0
65 2 41.0994 0 0 0
67 2 42.3838 0 0 0
69 2 43.6681 0 0 0
71 2 44.9525 0 0 0
73 2 46.2368 0 0 0
75 2 47.5212 0 0 0
77 2 48.8056 0 0 0
79 2 50.0899 0 0 0
2 2 0.642178 1.11229 0 0
4 2 1.92654 1.11229 0 0
6 2 3.21089 1.11229 0 0
8 2 4.49525 1.11229 0 0
10 2 5.77961 1.11229 0 0
12 2 7.06396 1.11229 0 0
14 2 8.34832 1.11229 0 0
16 2 9.63268 1.11229 0 0
18 2 10.917 1.11229 0 0
20 2 12.2014 1.11229 0 0
22 2 13.4857 1.11229 0 0
24 2 14.7701 1.11229 0 0
26 2 16.0545 1.11229 0 0
28 2 17.3388 1.11229 0 0
30 2 18.6232 1.11229 0 0
32 2 19.9075 1.11229 0 0
34 2 21.1919 1.11229 0 0
36 2 22.4762 1.11229 0 0
38 2 23.7606 1.11229 0 0
40 2 25.045 1.11229 0 0
42 2 26.3293 1.11229 0 0
44 2 27.6137 1.11229 0 0
46 2 28.898 1.11229 0 0
48 2 30.1824 1.11229 0 0
50 2 31.4667 1.11229 0 0
52 2 32.7511 1.11229 0 0
54 2 34.0355 1.11229 0 0
56 2 35.3198 1.11229 0 0
58 2 36.6042 1.11229 0 0
60 2 37.8885 1.11229 0 0
62 2 39.1729 1.11229 0 0
64 2 40.4572 1.11229 0 0
66 2 41.7416 1.11229 0 0
68 2 43.026 1.11229 0 0
70 2 44.3103 1.11229 0 0
72 2 45.5947 1.11229 0 0
74 2 46.879 1.11229 0 0
76 2 48.1634 1.11229 0 0
78 2 49.4477 1.11229 0 0
80 2 50.7321 1.11229 0 0
81 2 0 2.22457 0 0
83 2 1.28436 2.22457 0 0
85 2 2.56871 2.22457 0 0
87 2 3.85307 2.22457 0 0
89 2 5.13743 2.22457 0 0
91 2 6.42178 2.22457 0 0
93 2 7.70614 2.22457 0 0
95 2 8.9905 2.22457 0 0
97 2 10.2749 2.22457 0 0
99 2 11.5592 2.22457 0 0
101 2 12.8436 2.22457 0 0
103 2 14.1279 2.22457 0 0
105 2 15.4123 2.22457 0 0
107 2 16.6966 2.22457 0 0
109 2 17.981 2.22457 0 0
111 2 19.2654 2.22457 0 0
113 2 20.5497 2.22457 0 0
115 2 21.8341 2.22457 0 0
117 2 23.1184 2.22457 0 0
119 2 24.4028 2.22457 0 0
121 2 25.6871 2.22457 0 0
123 2 26.9715 2.22457 0 0
125 2 28.2558 2.22457 0 0
127 2 29.5402 2.22457 0 0
129 2 30.8246 2.22457 0 0
131 2 32.1089 2.22457 0 0
133 2 33.3933 2.22457 0 0
135 2 34.6776 2.22457 0 0
137 2 35.962 2.22457 0 0
139 2 37.2463 2.22457 0 0
141 2 38.5307 2.22457 0 0
143 2 39.8151 2.22457 0 0
145 2 41.0994 2.22457 0 0
147 2 42.3838 2.22457 0 0
149 2 43.6681 2.22457 0 0
151 2 44.9525 2.22457 0 0
153 2 46.2368 2.22457 0 0
155 2 47.5212 2.22457 0 0
157 2 48.8056 2.22457 0 0
159 2 50.0899 2.22457 0 0
82 1 0.820476 3.29873 0 0.829153
84 1 1.84425 3.52468 0 0.753698
86 1 1.05261 4.44896 0 0.993894
88 1 2.97292 3.58511 0 -0.120618
90 1 4.40179 3.43624 0 0.859315
92 1 6.09677 3.56989 0 -3.0155
94 1 7.70432 3.46043 0 -0.176959
108 1 17.7965 3.29453 0 -1.2899
110 1 18.9663 3.12591 0 1.90384
112 1 20.435 3.53051 0 -0.166247
114 1 21.5674 3.38559 0 3.70102
116 1 22.6443 3.20849 0 0.412156
118 1 23.9157 3.52136 0 1.70411
120 1 24.9744 3.31849 0 -0.716909
122 1 26.645 3.157 0 -0.71321
124 1 28.0209 3.46079 0 -0.416842
126 1 29.3284 3.28989 0 1.26963
128 1 30.7086 3.34665 0 0.0912571
130 1 31.7626 3.31724 0 1.38274
132 1 32.8262 3.13366 0 1.24259
134 1 34.1691 3.30936 0 0.503424
136 1 36.6105 3.15769 0 0.599196
138 1 37.5561 3.61988 0 0.448104
140 1 38.5898 3.35698 0 0.0870777
142 1 39.761 3.98628 0 -0.0127997
144 1 40.2684 3.15852 0 -0.933442
146 1 41.5904 3.07446 0 -0.303188
148 1 42.7188 3.2915 0 -1.12495
150 1 44.2045 3.26577 0 -0.32506
152 1 45.6215 3.1218 0 -0.349794
154 1 47.0761 3.26088 0 0.651769
156 1 48.3415 3.10668 0 0.0381568
158 1 49.8654 3.45702 0 0.701484
160 1 50.8729 3.16805 0 -0.153347
161 1 50.7877 4.84752 0 0.890035
163 1 0.116239 4.01095 0 -0.535949
165 1 1.38335 5.58993 0 -0.468401
167 1 3.00082 4.76079 0 -2.78583
169 1 4.23613 4.48144 0 -0.383173
171 1 5.43484 4.57369 0 -0.602767
173 1 6.90348 4.4653 0 0.814304
189 1 19.9177 4.33382 0 -1.16072
191 1 21.8056 4.57395 0 0.525161
193 1 23.2488 4.77557 0 2.17687
195 1 22.7308 5.70939 0 0.410021
197 1 24.2901 4.79561 0 1.8007
199 1 25.9703 4.0605 0 -0.693882
201 1 26.8812 5.26552 0 0.718194
203 1 27.4256 4.35548 0 0.161708
205 1 28.5997 4.50749 0 0.985165
207 1 29.9992 4.08468 0 0.085979
209 1 31.0776 4.43097 0 0.673806
211 1 32.442 4.11673 0 0.720702
213 1 33.5381 4.45352 0 -0.195747
215 1 35.3635 4.61608 0 -0.0477518
217 1 36.3106 4.13821 0 -0.23635
219 1 37.0845 4.87328 0 0.681129
221 1 38.3362 4.56291 0 0.815277
223 1 40.2798 5.35154 0 -1.19098
225 1 40.7897 4.13335 0 -1.40005
227 1 42.6539 4.649 0 -0.51144
229 1 43.5438 4.12808 0 -0.289653
231 1 44.9401 4.13975 0 0.714316
233 1 46.3414 4.13835 0 2.34104
235 1 47.4952 4.31454 0 1.7133
237 1 48.5042 4.51069 0 -1.21151
239 1 49.4723 4.97768 0 0.640182
162 1 50.5248 5.92596 0 -0.0451423
164 1 0.305181 5.33343 0 0.106125
166 1 2.35182 5.98034 0 0.717301
168 1 3.51041 5.99573 0 0.332014
170 1 4.67698 5.49152 0 0.821534
172 1 6.22777 5.68092 0 -0.156821
190 1 20.2717 6.20811 0 0.857008
192 1 20.8415 5.24325 0 2.39754
194 1 21.6053 5.90716 0 -1.91581
196 1 24.0909 5.93991 0 0.409758
198 1 25.7563 5.16533 0 -0.9996
200 1 26.3219 6.11153 0 0.954297
202 1 27.3583 6.50943 0 -0.579053
204 1 27.9806 5.4367 0 -1.05348
206 1 29.342 5.14531 0 0.994299
208 1 30.6519 5.42019 0 1.1968
210 1 31.9532 5.48271 0 0.0766986
212 1 32.8939 5.30776 0 1.69383
214 1 34.1116 5.45129 0 0.0702084
216 1 36.1517 5.52032 0 -0.845915
218 1 37.1179 6.30669 0 -0.149492
220 1 37.8869 5.57153 0 0.256188
222 1 39.2263 5.0645 0 -1.01312
224 1 39.9135 6.65102 0 0.936982
226 1 41.7214 5.14034 0 -1.1871
228 1 42.8641 5.7567 0 -0.266849
230 1 44.0107 5.18395 0 -1.31773
232 1 44.7499 6.04959 0 -0.380352
234 1 45.2936 5.15449 0 -0.121732
236 1 46.812 5.39597 0 -1.9936
238 1 47.8819 5.39381 0 -1.4436
240 1 49.2667 5.96545 0 0.633538
241 1 50.7208 7.32079 0 -0.428985
243 1 0.123928 6.31604 0 -0.576387
245 1 1.48626 6.79825 0 -0.11196
247 1 2.77693 7.3224 0 -0.250328
249 1 3.98485 7.08694 0 0.467
251 1 5.39307 6.3253 0 -1.14845
271 1 21.6788 7.23119 0 1.38219
273 1 22.7128 7.7507 0 -0.929756
275 1 23.3518 6.87647 0 -0.112841
277 1 24.02 7.71992 0 1.3834
279 1 25.0364 6.33144 0 0.0919729
281 1 26.4708 7.19191 0 0.617005
283 1 28.4933 7.67567 0 1.76095
285 1 28.4726 6.44905 0 0.283222
287 1 29.6097 6.21428 0 0.139393
289 1 30.6605 6.65659 0 0.839376
291 1 32.7062 6.36553 0 0.258128
293 1 34.0248 6.57298 0 1.704
295 1 35.0363 6.0977 0 0.217999
297 1 36.0596 6.72766 0 -0.305069
299 1 38.0436 7.0271 0 0.663153
301 1 39.2401 7.56108 0 -0.609821
303 1 38.83 6.13722 0 0.402379
305 1 41.0648 5.93852 0 0.735292
307 1 42.4135 6.82218 0 0.338677
309 1 43.5009 6.46487 0 -1.77033
311 1 44.7097 7.20137 0 0.330311
313 1 46.4451 7.4618 0 1.4598
315 1 45.717 6.67873 0 -1.10884
317 1 48.3774 6.49494 0 -0.784106
319 1 49.3716 7.42269 0 -0.374517