ITEM: TIMESTEP
0
ITEM: NUMBER OF ATOMS
803
ITEM: BOX BOUNDS pp ss pp
0.0000000000000000e+00 5.1374269009840255e+01
-2.2245711031688635e-03 2.2247935602791809e+01
-3.2108918131150160e-01 3.2108918131150160e-01
ITEM: ATOMS id type x y z vx
1 2 0 0 0 0
3 2 1.28436 0 0 0
5 2 2.56871 0 0 0
7 2 3.85307 0 0 0
9 2 5.13743 0 0 0
11 2 6.42178 0 0 0
13 2 7.70614 0 0 0
15 2 8.9905 0 0 0
17 2 10.2749 0 0 0
19 2 11.5592 0 0 0
21 2 12.8436 0 0 0
23 2 14.1279 0 0 0
25 2 15.4123 0 0 0
27 2 16.6966 0 0 0
29 2 17.981 0 0 0
31 2 19.2654 0 0 0
33 2 20.5497 0 0 0
35 2 21.8341 0 0 0
37 2 23.1184 0 0 0
39 2 24.4028 0 0 0
41 2 25.6871 0 0 0
43 2 26.9715 0 0 0
45 2 28.2558 0 0 0
47 2 29.5402 0 0 0
49 2 30.8246 0 0 0
51 2 32.1089 0 0 0
53 2 33.3933 0 0 0
55 2 34.6776 0 0 0
57 2 35.962 0 0 0
59 2 37.2463 0 0 0
61 2 38.5307 0 0 0
63 2 39.8151 0 0 0
65 2 41.0994 0 0 0
67 2 42.3838 0 0 0
69 2 43.6681 0 0 0
71 2 44.9525 0 0 0
73 2 46.2368 0 0 0
75 2 47.5212 0 0 0
77 2 48.8056 0 0 0
79 2 50.0899 0 0 0
2 2 0.642178 1.11229 0 0
4 2 1.92654 1.11229 0 0
6 2 3.21089 1.11229 0 0
8 2 4.49525 1.11229 0 0
10 2 5.77961 1.11229 0 0
12 2 7.06396 1.11229 0 0
14 2 8.34832 1.11229 0 0
16 2 9.63268 1.11229 0 0
18 2 10.917 1.11229 0 0
20 2 12.2014 1.11229 0 0
22 2 13.4857 1.11229 0 0
24 2 14.7701 1.11229 0 0
26 2 16.0545 1.11229 0 0
28 2 17.3388 1.11229 0 0
30 2 18.6232 1.11229 0 0
32 2 19.9075 1.11229 0 0
34 2 21.1919 1.11229 0 0
36 2 22.4762 1.11229 0 0
38 2 23.7606 1.11229 0 0
40 2 25.045 1.11229 0 0
42 2 26.3293 1.11229 0 0
44 2 27.6137 1.11229 0 0
46 2 28.898 1.11229 0 0
48 2 30.1824 1.11229 0 0
50 2 31.4667 1.11229 0 0
52 2 32.7511 1.11229 0 0
54 2 34.0355 1.11229 0 0
56 2 35.3198 1.11229 0 0
58 2 36.6042 1.11229 0 0
60 2 37.8885 1.11229 0 0
62 2 39.1729 1.11229 0 0
64 2 40.4572 1.11229 0 0
66 2 41.7416 1.11229 0 0
68 2 43.026 1.11229 0 0
70 2 44.3103 1.11229 0 0
72 2 45.5947 1.11229 0 0
74 2 46.879 1.11229 0 0
76 2 48.1634 1.11229 0 0
78 2 49.4477 1.11229 0 0
80 2 50.7321 1.11229 0 0
81 2 0 2.22457 0 0
83 2 1.28436 2.22457 0 0
85 2 2.56871 2.22457 0 0
87 2 3.85307 2.22457 0 0
89 2 5.13743 2.22457 0 0
91 2 6.42178 2.22457 0 0
93 2 7.70614 2.22457 0 0
95 2 8.9905 2.22457 0 0
97 2 10.2749 2.22457 0 0
99 2 11.5592 2.22457 0 0
101 2 12.8436 2.22457 0 0
103 2 14.1279 2.22457 0 0
105 2 15.4123 2.22457 0 0
107 2 16.6966 2.22457 0 0
109 2 17.981 2.22457 0 0
111 2 19.2654 2.22457 0 0
113 2 20.5497 2.22457 0 0
115 2 21.8341 2.22457 0 0
117 2 23.1184 2.22457 0 0
119 2 24.4028 2.22457 0 0
121 2 25.6871 2.22457 0 0
123 2 26.9715 2.22457 0 0
125 2 28.2558 2.22457 0 0
127 2 29.5402 2.22457 0 0
129 2 30.8246 2.22457 0 0
131 2 32.1089 2.22457 0 0
133 2 33.3933 2.22457 0 0
135 2 34.6776 2.22457 0 0
137 2 35.962 2.22457 0 0
139 2 37.2463 2.22457 0 0
141 2 38.5307 2.22457 0 0
143 2 39.8151 2.22457 0 0
145 2 41.0994 2.22457 0 0
147 2 42.3838 2.22457 0 0
149 2 43.6681 2.22457 0 0
151 2 44.9525 2.22457 0 0
153 2 46.2368 2.22457 0 0
155 2 47.5212 2.22457 0 0
157 2 48.8056 2.22457 0 0
159 2 50.0899 2.22457 0 0
82 1 0.642178 3.33686 0 0.470425
84 1 1.92654 3.33686 0 1.41353
86 1 3.21089 3.33686 0 -0.728133
88 1 4.49525 3.33686 0 -1.35911
90 1 5.77961 3.33686 0 -0.721284
92 1 7.06396 3.33686 0 1.31638
94 1 8.34832 3.33686 0 -1.07137
96 1 9.63268 3.33686 0 -1.26958
98 1 10.917 3.33686 0 -0.301455
100 1 12.2014 3.33686 0 0.263532
102 1 13.4857 3.33686 0 -1.65663
104 1 14.7701 3.33686 0 -0.183307
106 1 16.0545 3.33686 0 0.811434
108 1 17.3388 3.33686 0 -0.478916
110 1 18.6232 3.33686 0 -0.584369
112 1 19.9075 3.33686 0 0.49056
114 1 21.1919 3.33686 0 -0.0865898
116 1 22.4762 3.33686 0 0.129393
118 1 23.7606 3.33686 0 -1.57776
120 1 25.045 3.33686 0 -0.899974
122 1 26.3293 3.33686 0 0.945392
124 1 27.6137 3.33686 0 -0.267442
126 1 28.898 3.33686 0 0.611575
128 1 30.1824 3.33686 0 0.765634
130 1 31.4667 3.33686 0 0.754769
132 1 32.7511 3.33686 0 -0.208806
134 1 34.0355 3.33686 0 0.0668427
136 1 35.3198 3.33686 0 1.45093
138 1 36.6042 3.33686 0 1.5008
140 1 37.8885 3.33686 0 1.44039
142 1 39.1729 3.33686 0 -0.335208
144 1 40.4572 3.33686 0 -1.01211
146 1 41.7416 3.33686 0 -1.33167
148 1 43.026 3.33686 0 1.21059
150 1 44.3103 3.33686 0 0.921689
152 1 45.5947 3.33686 0 -0.521053
154 1 46.879 3.33686 0 -0.705741
156 1 48.1634 3.33686 0 -0.765994
158 1 49.4477 3.33686 0 -1.69866
160 1 50.7321 3.33686 0 1.63274
161 1 0 4.44914 0 0.681324
163 1 1.28436 4.44914 0 -0.540205
165 1 2.56871 4.44914 0 -1.52811
167 1 3.85307 4.44914 0 -1.68111
169 1 5.13743 4.44914 0 -1.57917
171 1 6.42178 4.44914 0 1.41589
173 1 7.70614 4.44914 0 1.66634
175 1 8.9905 4.44914 0 -0.0110762
177 1 10.2749 4.44914 0 0.876646
179 1 11.5592 4.44914 0 -1.68909
181 1 12.8436 4.44914 0 -1.30063
183 1 14.1279 4.44914 0 -1.14789
185 1 15.4123 4.44914 0 -1.56622
187 1 16.6966 4.44914 0 -1.39625
189 1 17.981 4.44914 0 0.503765
191 1 19.2654 4.44914 0 1.66082
193 1 20.5497 4.44914 0 -1.48725
195 1 21.8341 4.44914 0 -1.19638
197 1 23.1184 4.44914 0 1.20598
199 1 24.4028 4.44914 0 1.48467
201 1 25.6871 4.44914 0 -1.24209
203 1 26.9715 4.44914 0 -1.02538
205 1 28.2558 4.44914 0 -1.43442
207 1 29.5402 4.44914 0 0.308352
209 1 30.8246 4.44914 0 0.906663
211 1 32.1089 4.44914 0 -0.910606
213 1 33.3933 4.44914 0 1.52355
215 1 34.6776 4.44914 0 -1.25068
217 1 35.962 4.44914 0 -0.822393
219 1 37.2463 4.44914 0 0.556907
221 1 38.5307 4.44914 0 -0.500915
223 1 39.8151 4.44914 0 0.237908
225 1 41.0994 4.44914 0 0.216678
227 1 42.3838 4.44914 0 1.70595
229 1 43.6681 4.44914 0 1.10704
231 1 44.9525 4.44914 0 1.48873
233 1 46.2368 4.44914 0 0.199924
235 1 47.5212 4.44914 0 0.932195
237 1 48.8056 4.44914 0 -0.273918
239 1 50.0899 4.44914 0 1.63666
162 1 0.642178 5.56143 0 -0.724446
164 1 1.92654 5.56143 0 -0.782433
166 1 3.21089 5.56143 0 -0.357653
168 1 4.49525 5.56143 0 -0.527961
170 1 5.77961 5.56143 0 0.731131
172 1 7.06396 5.56143 0 0.141358
174 1 8.34832 5.56143 0 1.25287
176 1 9.63268 5.56143 0 1.0126
186 1 16.0545 5.56143 0 -1.22061
188 1 17.3388 5.56143 0 -0.85997
190 1 18.6232 5.56143 0 -1.14969
192 1 19.9075 5.56143 0 -0.635837
194 1 21.1919 5.56143 0 0.655041
196 1 22.4762 5.56143 0 -1.28559
198 1 23.7606 5.56143 0 1.41891
200 1 25.045 5.56143 0 0.850372
202 1 26.3293 5.56143 0 -1.37242
204 1 27.6137 5.56143 0 -1.62326
206 1 28.898 5.56143 0 0.088564
208 1 30.1824 5.56143 0 1.20678
210 1 31.4667 5.56143 0 -1.65593
212 1 32.7511 5.56143 0 1.60817
214 1 34.0355 5.56143 0 -1.12823
216 1 35.3198 5.56143 0 1.68978
218 1 36.6042 5.56143 0 0.835553
220 1 37.8885 5.56143 0 1.69522
222 1 39.1729 5.56143 0 -0.589809
224 1 40.4572 5.56143 0 0.716115
226 1 41.7416 5.56143 0 -0.23251
228 1 43.026 5.56143 0 0.852872
230 1 44.3103 5.56143 0 -0.452215
232 1 45.5947 5.56143 0 -0.767173
234 1 46.879 5.56143 0 -0.535579
236 1 48.1634 5.56143 0 -1.4774
238 1 49.4477 5.56143 0 -1.40485
240 1 50.7321 5.56143 0 0.185115
241 1 0 6.67371 0 1.02123
243 1 1.28436 6.67371 0 -1.62239
245 1 2.56871 6.67371 0 -0.539677
247 1 3.85307 6.67371 0 0.0439573
249 1 5.13743 6.67371 0 0.248916
251 1 6.42178 6.67371 0 0.786766
253 1 7.70614 6.67371 0 -0.623361
255 1 8.9905 6.67371 0 -0.506389
267 1 16.6966 6.67371 0 -1.057
269 1 17.981 6.67371 0 0.088708
271 1 19.2654 6.67371 0 0.139653
273 1 20.5497 6.67371 0 0.341652
275 1 21.8341 6.67371 0 0.679565
277 1 23.1184 6.67371 0 0.425963
279 1 24.4028 6.67371 0 -1.39736
281 1 25.6871 6.67371 0 0.109766
283 1 26.9715 6.67371 0 -0.511424
285 1 28.2558 6.67371 0 -0.351269
287 1 29.5402 6.67371 0 -0.620096
289 1 30.8246 6.67371 0 -1.05758
291 1 32.1089 6.67371 0 1.47033
293 1 33.3933 6.67371 0 0.132181
295 1 34.6776 6.67371 0 -1.31506
297 1 35.962 6.67371 0 -0.424475
299 1 37.2463 6.67371 0 1.5086
301 1 38.5307 6.67371 0 0.248638
303 1 39.8151 6.67371 0 -1.53172
305 1 41.0994 6.67371 0 1.66622
307 1 42.3838 6.67371 0 -0.461979
309 1 43.6681 6.67371 0 1.06292
311 1 44.9525 6.67371 0 1.27003
313 1 46.2368 6.67371 0 -0.966596
315 1 47.5212 6.67371 0 0.0404327
317 1 48.8056 6.67371 0 1.08101
319 1 50.0899 6.67371 0 0.104684
242 1 0.642178 7.786 0 -0.504544
244 1 1.92654 7.786 0 -0.526104
246 1 3.21089 7.786 0 0.977132
248 1 4.49525 7.786 0 1.69838
250 1 5.77961 7.786 0 -1.65706
252 1 7.06396 7.786 0 0.121451
254 1 8.34832 7.786 0 0.538882
268 1 17.3388 7.786 0 -1.45811
270 1 18.6232 7.786 0 1.29267
272 1 19.9075 7.786 0 0.887514
274 1 21.1919 7.786 0 -0.383475
276 1 22.4762 7.786 0 0.384295
278 1 23.7606 7.786 0 -1.55568
280 1 25.045 7.786 0 1.41056
282 1 26.3293 7.786 0 -1.27307
284 1 27.6137 7.786 0 -0.440264
286 1 28.898 7.786 0 -0.803166
288 1 30.1824 7.786 0 -0.628429
290 1 31.4667 7.786 0 1.21098
292 1 32.7511 7.786 0 -1.64704
294 1 34.0355 7.786 0 -1.36829
296 1 35.3198 7.786 0 0.539279
298 1 36.6042 7.786 0 -1.21599
300 1 37.8885 7.786 0 -0.21419
302 1 39.1729 7.786 0 1.5878
304 1 40.4572 7.786 0 0.667663
306 1 41.7416 7.786 0 1.38389
308 1 43.026 7.786 0 0.782278
310 1 44.3103 7.786 0 -1.39312
312 1 45.5947 7.786 0 0.87747
314 1 46.879 7.786 0 -1.38906
316 1 48.1634 7.786 0 -1.25152
318 1 49.4477 7.786 0 0.590149
320 1 50.7321 7.786 0 0.559591
321 1 0 8.89828 0 -1.31039
323 1 1.28436 8.89828 0 -1.07751
325 1 2.56871 8.89828 0 -1.45083
327 1 3.85307 8.89828 0 -0.302025
329 1 5.13743 8.89828 0 0.901884
331 1 6.42178 8.89828 0 0.83861
333 1 7.70614 8.89828 0 0.619382
349 1 17.981 8.89828 0 -0.0189879
351 1 19.2654 8.89828 0 -0.726763
353 1 20.5497 8.89828 0 -0.823864
355 1 21.8341 8.89828 0 1.44789
357 1 23.1184 8.89828 0 0.596843
359 1 24.4028 8.89828 0 -0.31138
361 1 25.6871 8.89828 0 -1.51568
363 1 26.9715 8.89828 0 1.47262
365 1 28.2558 8.89828 0 -1.17054
367 1 29.5402 8.89828 0 1.5144
369 1 30.8246 8.89828 0 1.49026
371 1 32.1089 8.89828 0 1.1687
373 1 33.3933 8.89828 0 1.65417
375 1 34.6776 8.89828 0 -0.247462
377 1 35.962 8.89828 0 -1.15816
379 1 37.2463 8.89828 0 0.963363
381 1 38.5307 8.89828 0 1.48973
383 1 39.8151 8.89828 0 0.791962
385 1 41.0994 8.89828 0 0.403462
387 1 42.3838 8.89828 0 -1.2603
389 1 43.6681 8.89828 0 0.690525
391 1 44.9525 8.89828 0 1.22901
393 1 46.2368 8.89828 0 1.55148
395 1 47.5212 8.89828 0 0.643433
397 1 48.8056 8.89828 0 1.41519
399 1 50.0899 8.89828 0 -0.667022
322 1 0.642178 10.0106 0 -0.0521976
324 1 1.92654 10.0106 0 1.16237
326 1 3.21089 10.0106 0 0.317259
328 1 4.49525 10.0106 0 -0.301216
330 1 5.77961 10.0106 0 0.74465
332 1 7.06396 10.0106 0 -0.0711817
334 1 8.34832 10.0106 0 -1.47569
348 1 17.3388 10.0106 0 -0.484619
350 1 18.6232 10.0106 0 -0.247053
352 1 19.9075 10.0106 0 -1.17168
354 1 21.1919 10.0106 0 1.03742
356 1 22.4762 10.0106 0 -0.973747
358 1 23.7606 10.0106 0 -0.929631
360 1 25.045 10.0106 0 -1.57242
362 1 26.3293 10.0106 0 -0.664856
364 1 27.6137 10.0106 0 1.45209
366 1 28.898 10.0106 0 -1.39567
368 1 30.1824 10.0106 0 1.54645
370 1 31.4667 10.0106 0 -0.711858
372 1 32.7511 10.0106 0 1.51668
374 1 34.0355 10.0106 0 -0.291465
376 1 35.3198 10.0106 0 -0.985848
378 1 36.6042 10.0106 0 0.324696
380 1 37.8885 10.0106 0 0.808488
382 1 39.1729 10.0106 0 -1.3675
384 1 40.4572 10.0106 0 0.543787
386 1 41.7416 10.0106 0 -1.13865
388 1 43.026 10.0106 0 0.171402
390 1 44.3103 10.0106 0 1.18024
392 1 45.5947 10.0106 0 -1.44229
394 1 46.879 10.0106 0 0.589454
396 1 48.1634 10.0106 0 -0.464706
398 1 49.4477 10.0106 0 0.315723
400 1 50.7321 10.0106 0 -1.3695
401 1 0 11.1229 0 0.827774
403 1 1.28436 11.1229 0 0.255978
405 1 2.56871 11.1229 0 -0.712815
407 1 3.85307 11.1229 0 0.877337
409 1 5.13743 11.1229 0 0.343423
411 1 6.42178 11.1229 0 -1.03587
413 1 7.70614 11.1229 0 0.183607
415 1 8.9905 11.1229 0 1.30421
427 1 16.6966 11.1229 0 -1.54389
429 1 17.981 11.1229 0 0.262948
431 1 19.2654 11.1229 0 -1.22555
433 1 20.5497 11.1229 0 0.982676
435 1 21.8341 11.1229 0 -0.99155
437 1 23.1184 11.1229 0 -0.577471
439 1 24.4028 11.1229 0 0.591847
441 1 25.6871 11.1229 0 -0.449012
443 1 26.9715 11.1229 0 0.919818
445 1 28.2558 11.1229 0 -0.993787
447 1 29.5402 11.1229 0 0.835092
449 1 30.8246 11.1229 0 0.728425
451 1 32.1089 11.1229 0 0.132082
453 1 33.3933 11.1229 0 -1.36783
455 1 34.6776 11.1229 0 0.786034
457 1 35.962 11.1229 0 1.2723
459 1 37.2463 11.1229 0 -0.537253
461 1 38.5307 11.1229 0 0.514609
463 1 39.8151 11.1229 0 1.73827
465 1 41.0994 11.1229 0 -0.283994
467 1 42.3838 11.1229 0 1.02639
469 1 43.6681 11.1229 0 -1.63208
471 1 44.9525 11.1229 0 -0.709036
473 1 46.2368 11.1229 0 1.29424
475 1 47.5212 11.1229 0 -0.183461
477 1 48.8056 11.1229 0 -0.762037
479 1 50.0899 11.1229 0 0.575297
402 1 0.642178 12.2351 0 0.415094
404 1 1.92654 12.2351 0 0.743768
406 1 3.21089 12.2351 0 -0.614251
408 1 4.49525 12.2351 0 1.08652
410 1 5.77961 12.2351 0 0.286048
412 1 7.06396 12.2351 0 -0.970423
414 1 8.34832 12.2351 0 0.194049
416 1 9.63268 12.2351 0 1.46851
426 1 16.0545 12.2351 0 0.312951
428 1 17.3388 12.2351 0 -0.612836
430 1 18.6232 12.2351 0 0.389603
432 1 19.9075 12.2351 0 1.47589
434 1 21.1919 12.2351 0 -1.61399
436 1 22.4762 12.2351 0 1.53792
438 1 23.7606 12.2351 0 0.812693
440 1 25.045 12.2351 0 -0.164802
442 1 26.3293 12.2351 0 -0.455762
444 1 27.6137 12.2351 0 1.48113
446 1 28.898 12.2351 0 0.383458
448 1 30.1824 12.2351 0 -1.70072
450 1 31.4667 12.2351 0 0.383056
452 1 32.7511 12.2351 0 1.30218
454 1 34.0355 12.2351 0 1.1833
456 1 35.3198 12.2351 0 0.95252
458 1 36.6042 12.2351 0 -0.473898
460 1 37.8885 12.2351 0 -0.0448861
462 1 39.1729 12.2351 0 0.173807
464 1 40.4572 12.2351 0 0.0162843
466 1 41.7416 12.2351 0 -0.680602
468 1 43.026 12.2351 0 -1.36806
470 1 44.3103 12.2351 0 0.118507
472 1 45.5947 12.2351 0 -1.58245
474 1 46.879 12.2351 0 -0.555981
476 1 48.1634 12.2351 0 0.00201655
478 1 49.4477 12.2351 0 -0.87017
480 1 50.7321 12.2351 0 0.780847
481 1 0 13.3474 0 -1.16515
483 1 1.28436 13.3474 0 1.04057
485 1 2.56871 13.3474 0 0.984383
487 1 3.85307 13.3474 0 1.17112
489 1 5.13743 13.3474 0 1.51857
491 1 6.42178 13.3474 0 0.409494
493 1 7.70614 13.3474 0 1.45644
495 1 8.9905 13.3474 0 -0.565505
497 1 10.2749 13.3474 0 1.1471
499 1 11.5592 13.3474 0 -0.322877
501 1 12.8436 13.3474 0 0.933192
503 1 14.1279 13.3474 0 0.503741
505 1 15.4123 13.3474 0 1.00599
507 1 16.6966 13.3474 0 -0.0665839
509 1 17.981 13.3474 0 1.5623
511 1 19.2654 13.3474 0 1.41781
513 1 20.5497 13.3474 0 -0.151457
515 1 21.8341 13.3474 0 -0.18713
517 1 23.1184 13.3474 0 0.37299
519 1 24.4028 13.3474 0 -0.235483
521 1 25.6871 13.3474 0 1.28321
523 1 26.9715 13.3474 0 0.149214
525 1 28.2558 13.3474 0 0.551925
527 1 29.5402 13.3474 0 -0.645333
529 1 30.8246 13.3474 0 -1.31215
531 1 32.1089 13.3474 0 -1.62923
533 1 33.3933 13.3474 0 0.565347
535 1 34.6776 13.3474 0 -0.818592
537 1 35.962 13.3474 0 -0.499275
539 1 37.2463 13.3474 0 0.402389
541 1 38.5307 13.3474 0 -0.658975
543 1 39.8151 13.3474 0 -1.66425
545 1 41.0994 13.3474 0 -1.03035
547 1 42.3838 13.3474 0 0.803513
549 1 43.6681 13.3474 0 0.895159
551 1 44.9525 13.3474 0 -1.47957
553 1 46.2368 13.3474 0 1.19603
555 1 47.5212 13.3474 0 1.65237
557 1 48.8056 13.3474 0 -0.714479
559 1 50.0899 13.3474 0 0.127637
482 1 0.642178 14.4597 0 1.31127
484 1 1.92654 14.4597 0 0.0615624
486 1 3.21089 14.4597 0 1.72154
488 1 4.49525 14.4597 0 -1.4478
490 1 5.77961 14.4597 0 -0.986321
492 1 7.06396 14.4597 0 -1.27302
494 1 8.34832 14.4597 0 0.415813
496 1 9.63268 14.4597 0 1.40347
498 1 10.917 14.4597 0 0.0394821
500 1 12.2014 14.4597 0 0.606313
502 1 13.4857 14.4597 0 -0.570061
504 1 14.7701 14.4597 0 -0.672524
506 1 16.0545 14.4597 0 -0.5639
508 1 17.3388 14.4597 0 0.643322
510 1 18.6232 14.4597 0 -1.115
512 1 19.9075 14.4597 0 0.690914
514 1 21.1919 14.4597 0 -1.67281
516 1 22.4762 14.4597 0 -0.364914
518 1 23.7606 14.4597 0 -0.489414
520 1 25.045 14.4597 0 -0.738722
522 1 26.3293 14.4597 0 1.27646
524 1 27.6137 14.4597 0 0.329541
526 1 28.898 14.4597 0 -0.129622
528 1 30.1824 14.4597 0 0.476941
530 1 31.4667 14.4597 0 -1.43724
532 1 32.7511 14.4597 0 -0.235654
534 1 34.0355 14.4597 0 -0.298431
536 1 35.3198 14.4597 0 1.68324
538 1 36.6042 14.4597 0 -0.680953
540 1 37.8885 14.4597 0 -0.824092
542 1 39.1729 14.4597 0 -1.54142
544 1 40.4572 14.4597 0 -1.4192
546 1 41.7416 14.4597 0 0.537008
548 1 43.026 14.4597 0 -0.0952068
550 1 44.3103 14.4597 0 -0.401037
552 1 45.5947 14.4597 0 -0.605721
554 1 46.879 14.4597 0 -1.32274
556 1 48.1634 14.4597 0 1.0011
558 1 49.4477 14.4597 0 -1.64695
560 1 50.7321 14.4597 0 -0.0311255
561 1 0 15.572 0 -1.29796
563 1 1.28436 15.572 0 0.722213
565 1 2.56871 15.572 0 0.182404
567 1 3.85307 15.572 0 1.44272
569 1 5.13743 15.572 0 -1.16731
571 1 6.42178 15.572 0 1.51948
573 1 7.70614 15.572 0 0.410539
575 1 8.9905 15.572 0 1.55804
577 1 10.2749 15.572 0 1.63368
579 1 11.5592 15.572 0 -0.369475
581 1 12.8436 15.572 0 -1.57176
583 1 14.1279 15.572 0 0.835631
585 1 15.4123 15.572 0 0.560236
587 1 16.6966 15.572 0 -0.589037
589 1 17.981 15.572 0 0.391366
591 1 19.2654 15.572 0 1.01793
593 1 20.5497 15.572 0 1.07482
595 1 21.8341 15.572 0 -1.65412
597 1 23.1184 15.572 0 0.117887
599 1 24.4028 15.572 0 -0.278519
601 1 25.6871 15.572 0 -0.48443
603 1 26.9715 15.572 0 -1.23201
605 1 28.2558 15.572 0 1.1926
607 1 29.5402 15.572 0 0.718449
609 1 30.8246 15.572 0 -0.191896
611 1 32.1089 15.572 0 -0.877748
613 1 33.3933 15.572 0 -0.735494
615 1 34.6776 15.572 0 -0.833672
617 1 35.962 15.572 0 -0.825753
619 1 37.2463 15.572 0 -0.976057
621 1 38.5307 15.572 0 -0.917195
623 1 39.8151 15.572 0 -1.64915
625 1 41.0994 15.572 0 1.57742
627 1 42.3838 15.572 0 0.522602
629 1 43.6681 15.572 0 -0.158512
631 1 44.9525 15.572 0 -0.853672
633 1 46.2368 15.572 0 -1.0439
635 1 47.5212 15.572 0 0.659143
637 1 48.8056 15.572 0 0.751305
639 1 50.0899 15.572 0 -1.37013
562 1 0.642178 16.6843 0 -1.42433
564 1 1.92654 16.6843 0 -1.72133
566 1 3.21089 16.6843 0 1.34903
568 1 4.49525 16.6843 0 -1.04905
570 1 5.77961 16.6843 0 -0.187465
572 1 7.06396 16.6843 0 -0.115253
574 1 8.34832 16.6843 0 0.879443
576 1 9.63268 16.6843 0 0.380404
578 1 10.917 16.6843 0 -1.53654
580 1 12.2014 16.6843 0 0.569879
582 1 13.4857 16.6843 0 0.430033
584 1 14.7701 16.6843 0 -0.0669097
586 1 16.0545 16.6843 0 0.123451
588 1 17.3388 16.6843 0 -0.333883
590 1 18.6232 16.6843 0 -0.158589
592 1 19.9075 16.6843 0 1.56869
594 1 21.1919 16.6843 0 -1.50063
596 1 22.4762 16.6843 0 -1.38034
598 1 23.7606 16.6843 0 -0.436297
600 1 25.045 16.6843 0 -0.853271
602 1 26.3293 16.6843 0 -0.641228
604 1 27.6137 16.6843 0 -0.224345
606 1 28.898 16.6843 0 -1.65008
608 1 30.1824 16.6843 0 1.00907
610 1 31.4667 16.6843 0 -0.313183
612 1 32.7511 16.6843 0 0.159465
614 1 34.0355 16.6843 0 1.16977
616 1 35.3198 16.6843 0 0.701824
618 1 36.6042 16.6843 0 0.701476
620 1 37.8885 16.6843 0 0.314323
622 1 39.1729 16.6843 0 0.313107
624 1 40.4572 16.6843 0 1.394
626 1 41.7416 16.6843 0 -0.636673
628 1 43.026 16.6843 0 0.327357
630 1 44.3103 16.6843 0 1.55219
632 1 45.5947 16.6843 0 -0.993194
634 1 46.879 16.6843 0 1.09483
636 1 48.1634 16.6843 0 -0.0371201
638 1 49.4477 16.6843 0 0.842915
640 1 50.7321 16.6843 0 -0.0322731
641 1 0 17.7966 0 -0.00241488
643 1 1.28436 17.7966 0 -1.0002
645 1 2.56871 17.7966 0 1.00292
647 1 3.85307 17.7966 0 0.321456
649 1 5.13743 17.7966 0 -0.498139
651 1 6.42178 17.7966 0 1.49987
653 1 7.70614 17.7966 0 0.433434
655 1 8.9905 17.7966 0 -0.995845
657 1 10.2749 17.7966 0 -0.197546
659 1 11.5592 17.7966 0 1.43461
661 1 12.8436 17.7966 0 -1.0058
663 1 14.1279 17.7966 0 1.58237
665 1 15.4123 17.7966 0 0.461322
667 1 16.6966 17.7966 0 -0.661429
669 1 17.981 17.7966 0 1.21166
671 1 19.2654 17.7966 0 -1.38987
673 1 20.5497 17.7966 0 0.409405
675 1 21.8341 17.7966 0 -1.07383
677 1 23.1184 17.7966 0 1.66473
679 1 24.4028 17.7966 0 -1.52368
681 1 25.6871 17.7966 0 0.977275
683 1 26.9715 17.7966 0 -0.0880215
685 1 28.2558 17.7966 0 -0.564298
687 1 29.5402 17.7966 0 0.452462
689 1 30.8246 17.7966 0 -1.34887
691 1 32.1089 17.7966 0 -1.24406
693 1 33.3933 17.7966 0 -1.41916
695 1 34.6776 17.7966 0 1.07723
697 1 35.962 17.7966 0 -0.864577
699 1 37.2463 17.7966 0 -1.47815
701 1 38.5307 17.7966 0 1.19741
703 1 39.8151 17.7966 0 -0.926862
705 1 41.0994 17.7966 0 1.63787
707 1 42.3838 17.7966 0 1.43733
709 1 43.6681 17.7966 0 -0.0909457
711 1 44.9525 17.7966 0 -1.70296
713 1 46.2368 17.7966 0 -0.642938
715 1 47.5212 17.7966 0 -0.909505
717 1 48.8056 17.7966 0 1.62794
719 1 50.0899 17.7966 0 0.970199
642 1 0.642178 18.9089 0 -1.11014
644 1 1.92654 18.9089 0 1.234
646 1 3.21089 18.9089 0 1.15396
648 1 4.49525 18.9089 0 0.518811
650 1 5.77961 18.9089 0 -1.08134
652 1 7.06396 18.9089 0 -1.62653
654 1 8.34832 18.9089 0 0.684695
656 1 9.63268 18.9089 0 0.131222
658 1 10.917 18.9089 0 1.52154
660 1 12.2014 18.9089 0 -0.993127
662 1 13.4857 18.9089 0 1.46956
664 1 14.7701 18.9089 0 -1.44197
666 1 16.0545 18.9089 0 -1.29269
668 1 17.3388 18.9089 0 -0.507899
670 1 18.6232 18.9089 0 -0.0531678
672 1 19.9075 18.9089 0 1.65851
674 1 21.1919 18.9089 0 -0.546741
676 1 22.4762 18.9089 0 -0.336635
678 1 23.7606 18.9089 0 1.72895
680 1 25.045 18.9089 0 -0.102974
682 1 26.3293 18.9089 0 -0.914457
684 1 27.6137 18.9089 0 0.707983
686 1 28.898 18.9089 0 1.19625
688 1 30.1824 18.9089 0 1.19722
690 1 31.4667 18.9089 0 -1.60574
692 1 32.7511 18.9089 0 -1.30966
694 1 34.0355 18.9089 0 0.836599
696 1 35.3198 18.9089 0 -0.756988
698 1 36.6042 18.9089 0 1.70895
700 1 37.8885 18.9089 0 -1.53965
702 1 39.1729 18.9089 0 1.354
704 1 40.4572 18.9089 0 0.169506
706 1 41.7416 18.9089 0 -1.0169
708 1 43.026 18.9089 0 0.0059227
710 1 44.3103 18.9089 0 0.837381
712 1 45.5947 18.9089 0 -0.23225
714 1 46.879 18.9089 0 1.45592
716 1 48.1634 18.9089 0 1.52321
718 1 49.4477 18.9089 0 0.00656471
720 1 50.7321 18.9089 0 -0.725613
721 3 0 20.0211 0 0
723 3 1.28436 20.0211 0 0
725 3 2.56871 20.0211 0 0
727 3 3.85307 20.0211 0 0
729 3 5.13743 20.0211 0 0
731 3 6.42178 20.0211 0 0
733 3 7.70614 20.0211 0 0
735 3 8.9905 20.0211 0 0
737 3 10.2749 20.0211 0 0
739 3 11.5592 20.0211 0 0
741 3 12.8436 20.0211 0 0
743 3 14.1279 20.0211 0 0
745 3 15.4123 20.0211 0 0
747 3 16.6966 20.0211 0 0
749 3 17.981 20.0211 0 0
751 3 19.2654 20.0211 0 0
753 3 20.5497 20.0211 0 0
755 3 21.8341 20.0211 0 0
757 3 23.1184 20.0211 0 0
759 3 24.4028 20.0211 0 0
761 3 25.6871 20.0211 0 0
763 3 26.9715 20.0211 0 0
765 3 28.2558 20.0211 0 0
767 3 29.5402 20.0211 0 0
769 3 30.8246 20.0211 0 0
771 3 32.1089 20.0211 0 0
773 3 33.3933 20.0211 0 0
775 3 34.6776 20.0211 0 0
777 3 35.962 20.0211 0 0
779 3 37.2463 20.0211 0 0
781 3 38.5307 20.0211 0 0
783 3 39.8151 20.0211 0 0
785 3 41.0994 20.0211 0 0
787 3 42.3838 20.0211 0 0
789 3 43.6681 20.0211 0 0
791 3 44.9525 20.0211 0 0
793 3 46.2368 20.0211 0 0
795 3 47.5212 20.0211 0 0
797 3 48.8056 20.0211 0 0
799 3 50.0899 20.0211 0 0
722 3 0.642178 21.1334 0 0
724 3 1.92654 21.1334 0 0
726 3 3.21089 21.1334 0 0
728 3 4.49525 21.1334 0 0
730 3 5.77961 21.1334 0 0
732 3 7.06396 21.1334 0 0
734 3 8.34832 21.1334 0 0
736 3 9.63268 21.1334 0 0
738 3 10.917 21.1334 0 0
740 3 12.2014 21.1334 0 0
742 3 13.4857 21.1334 0 0
744 3 14.7701 21.1334 0 0
746 3 16.0545 21.1334 0 0
748 3 17.3388 21.1334 0 0
750 3 18.6232 21.1334 0 0
752 3 19.9075 21.1334 0 0
754 3 21.1919 21.1334 0 0
756 3 22.4762 21.1334 0 0
758 3 23.7606 21.1334 0 0
760 3 25.045 21.1334 0 0
762 3 26.3293 21.1334 0 0
764 3 27.6137 21.1334 0 0
766 3 28.898 21.1334 0 0
768 3 30.1824 21.1334 0 0
770 3 31.4667 21.1334 0 0
772 3 32.7511 21.1334 0 0
774 3 34.0355 21.1334 0 0
776 3 35.3198 21.1334 0 0
778 3 36.6042 21.1334 0 0
780 3 37.8885 21.1334 0 0
782 3 39.1729 21.1334 0 0
784 3 40.4572 21.1334 0 0
786 3 41.7416 21.1334 0 0
788 3 43.026 21.1334 0 0
790 3 44.3103 21.1334 0 0
792 3 45.5947 21.1334 0 0
794 3 46.879 21.1334 0 0
796 3 48.1634 21.1334 0 0
798 3 49.4477 21.1334 0 0
800 3 50.7321 21.1334 0 0
801 3 0 22.2457 0 0
802 3 1.28436 22.2457 0 0
803 3 2.56871 22.2457 0 0
425 3 3.85307 22.2457 0 0
424 3 5.13743 22.2457 0 0
423 3 6.42178 22.2457 0 0
422 3 7.70614 22.2457 0 0
421 3 8.9905 22.2457 0 0
420 3 10.2749 22.2457 0 0
419 3 11.5592 22.2457 0 0
418 3 12.8436 22.2457 0 0
417 3 14.1279 22.2457 0 0
347 3 15.4123 22.2457 0 0
346 3 16.6966 22.2457 0 0
345 3 17.981 22.2457 0 0
344 3 19.2654 22.2457 0 0
343 3 20.5497 22.2457 0 0
342 3 21.8341 22.2457 0 0
341 3 23.1184 22.2457 0 0
340 3 24.4028 22.2457 0 0
339 3 25.6871 22.2457 0 0
338 3 26.9715 22.2457 0 0
337 3 28.2558 22.2457 0 0
336 3 29.5402 22.2457 0 0
335 3 30.8246 22.2457 0 0
266 3 32.1089 22.2457 0 0
265 3 33.3933 22.2457 0 0
264 3 34.6776 22.2457 0 0
263 3 35.962 22.2457 0 0
262 3 37.2463 22.2457 0 0
261 3 38.5307 22.2457 0 0
260 3 39.8151 22.2457 0 0
259 3 41.0994 22.2457 0 0
258 3 42.3838 22.2457 0 0
257 3 43.6681 22.2457 0 0
256 3 44.9525 22.2457 0 0
184 3 46.2368 22.2457 0 0
182 3 47.5212 22.2457 0 0
180 3 48.8056 22.2457 0 0
178 3 50.0899 22.2457 0 0
ITEM: TIMESTEP
500
ITEM: NUMBER OF ATOMS
803
ITEM: BOX BOUNDS pp ss pp
0.0000000000000000e+00 5.1374269009840255e+01
-2.2245711031688635e-03 2.3337642936222114e+01
-3.2108918131150160e-01 3.2108918131150160e-01
ITEM: ATOMS id type x y z vx
1 2 0 0 0 0
3 2 1.28436 0 0 0
5 2 2.56871 0 0 0
7 2 3.85307 0 0 0
9 2 5.13743 0 0 0
11 2 6.42178 0 0 0
13 2 7.70614 0 0 0
15 2 8.9905 0 0 0
17 2 10.2749 0 0 0
19 2 11.5592 0 0 0
21 2 12.8436 0 0 0
23 2 14.1279 0 0 0
25 2 15.4123 0 0 0
27 2 16.6966 0 0 0
29 2 17.981 0 0 0
31 2 19.2654 0 0 0
33 2 20.5497 0 0 0
35 2 21.8341 0 0 0
37 2 23.1184 0 0 0
39 2 24.4028 0 0 0
41 2 25.6871 0 0 0
43 2 26.9715 0 0 0
45 2 28.2558 0 0 0
47 2 29.5402 0 0 0
49 2 30.8246 0 0 0
51 2 32.1089 0 0 0
53 2 33.3933 0 0 0
55 2 34.6776 0 0 0
57 2 35.962 0 0 0
59 2 37.2463 0 0 0
61 2 38.5307 0 0 0
63 2 39.8151 0 0 0
65 2 41.0994 0 0 0
67 2 42.3838 0 0 0
69 2 43.6681 0 0 0
71 2 44.9525 0 0 0
73 2 46.2368 0 0 0
75 2 47.5212 0 0 0
77 2 48.8056 0 0 0
79 2 50.0899 0 0 0
2 2 0.642178 1.11229 0 0
4 2 1.92654 1.11229 0 0
6 2 3.21089 1.11229 0 0
8 2 4.49525 1.11229 0 0
10 2 5.77961 1.11229 0 0
12 2 7.06396 1.11229 0 0
14 2 8.34832 1.11229 0 0
16 2 9.63268 1.11229 0 0
18 2 10.917 1.11229 0 0
20 2 12.2014 1.11229 0 0
22 2 13.4857 1.11229 0 0
24 2 14.7701 1.11229 0 0
26 2 16.0545 1.11229 0 0
28 2 17.3388 1.11229 0 0
30 2 18.6232 1.11229 0 0
32 2 19.9075 1.11229 0 0
34 2 21.1919 1.11229 0 0
36 2 22.4762 1.11229 0 0
38 2 23.7606 1.11229 0 0
40 2 25.045 1.11229 0 0
42 2 26.3293 1.11229 0 0
44 2 27.6137 1.11229 0 0
46 2 28.898 1.11229 0 0
48 2 30.1824 1.11229 0 0
50 2 31.4667 1.11229 0 0
52 2 32.7511 1.11229 0 0
54 2 34.0355 1.11229 0 0
56 2 35.3198 1.11229 0 0
58 2 36.6042 1.11229 0 0
60 2 37.8885 1.11229 0 0
62 2 39.1729 1.11229 0 0
64 2 40.4572 1.11229 0 0
66 2 41.7416 1.11229 0 0
68 2 43.026 1.11229 0 0
70 2 44.3103 1.11229 0 0
72 2 45.5947 1.11229 0 0
74 2 46.879 1.11229 0 0
76 2 48.1634 1.11229 0 0
78 2 49.4477 1.11229 0 0
80 2 50.7321 1.11229 0 0
81 2 0 2.22457 0 0
83 2 1.28436 2.22457 0 0
85 2 2.56871 2.22457 0 0
87 2 3.85307 2.22457 0 0
89 2 5.13743 2.22457 0 0
91 2 6.42178 2.22457 0 0
93 2 7.70614 2.22457 0 0
95 2 8.9905 2.22457 0 0
97 2 10.2749 2.22457 0 0
99 2 11.5592 2.22457 0 0
101 2 12.8436 2.22457 0 0
103 2 14.1279 2.22457 0 0
105 2 15.4123 2.22457 0 0
107 2 16.6966 2.22457 0 0
109 2 17.981 2.22457 0 0
111 2 19.2654 2.22457 0 0
113 2 20.5497 2.22457 0 0
115 2 21.8341 2.22457 0 0
117 2 23.1184 2.22457 0 0
119 2 24.4028 2.22457 0 0
121 2 25.6871 2.22457 0 0
123 2 26.9715 2.22457 0 0
125 2 28.2558 2.22457 0 0
127 2 29.5402 2.22457 0 0
129 2 30.8246 2.22457 0 0
131 2 32.1089 2.22457 0 0
133 2 33.3933 2.22457 0 0
135 2 34.6776 2.22457 0 0
137 2 35.962 2.22457 0 0
139 2 37.2463 2.22457 0 0
141 2 38.5307 2.22457 0 0
143 2 39.8151 2.22457 0 0
145 2 41.0994 2.22457 0 0
147 2 42.3838 2.22457 0 0
149 2 43.6681 2.22457 0 0
151 2 44.9525 2.22457 0 0
153 2 46.2368 2.22457 0 0
155 2 47.5212 2.22457 0 0
157 2 48.8056 2.22457 0 0
159 2 50.0899 2.22457 0 0
82 1 0.559545 3.22386 0 1.01795
84 1 1.89985 3.35666 0 0.789447
86 1 2.93664 3.5364 0 -1.47825
88 1 4.30265 3.49056 0 -0.149325
90 1 5.14761 3.99131 0 -0.436061
92 1 6.77448 3.43459 0 1.04664
94 1 8.51923 3.41954 0 -0.529349
96 1 9.50105 3.09393 0 0.887801
98 1 10.9042 3.12761 0 -0.310707
100 1 12.6855 3.47095 0 -0.312879
102 1 13.524 3.05284 0 -1.21573
104 1 15.0217 3.76414 0 -0.856413
106 1 15.9449 3.3696 0 -0.423993
108 1 17.5745 3.19855 0 -0.0694201
110 1 18.6861 3.04296 0 -0.797932
112 1 19.6608 3.36825 0 1.40526
114 1 21.1789 3.12007 0 0.304865
116 1 22.2369 3.25698 0 -0.655107
118 1 24.4995 3.49214 0 -0.740408
120 1 25.4663 4.16945 0 1.2276
122 1 26.29 3.04123 0 0.237842
124 1 27.5723 3.22013 0 -0.941477
126 1 29.1768 3.31136 0 0.192226
128 1 30.7041 3.81808 0 0.722454
130 1 31.6167 3.39421 0 0.0996992
132 1 32.9186 3.15652 0 1.25145
134 1 34.1713 3.39991 0 0.534462
136 1 36.5963 3.0901 0 0.36375
138 1 37.539 3.8198 0 0.458769
140 1 38.6566 3.52624 0 -0.0626172
142 1 39.9398 3.61059 0 0.363488
144 1 40.8927 3.24959 0 -1.3483
146 1 41.9787 3.23908 0 0.095876
148 1 43.021 3.14232 0 -0.0854842
150 1 44.3947 3.30943 0 -0.94331
152 1 45.7046 3.31179 0 -1.25411
154 1 46.8956 3.12169 0 0.399223
156 1 48.1575 3.14085 0 0.676566
158 1 49.4259 3.20773 0 -0.696739
160 1 50.4852 3.1972 0 -0.0761322
161 1 0.114505 4.62756 0 -0.140376
163 1 1.19707 4.0804 0 -0.754932
165 1 2.14205 4.49874 0 1.74088
167 1 3.06667 5.00299 0 -0.783108
169 1 4.02044 4.54577 0 -2.33863
171 1 6.33751 4.31399 0 0.15933
173 1 7.50182 4.61279 0 0.347791
175 1 8.88844 4.53576 0 0.21675
177 1 10.1858 4.22865 0 -1.26633
179 1 11.9885 4.19189 0 1.79199
181 1 13.5132 4.12712 0 1.75521
183 1 16.0649 4.41019 0 0.699538
185 1 16.6387 5.20979 0 0.398654
187 1 17.003 3.99991 0 2.14544
189 1 19.813 4.81102 0 0.738587
191 1 20.9675 5.18339 0 0.490031
193 1 22.0014 5.25614 0 1.87772
195 1 21.4996 4.14268 0 -0.109647
197 1 23.4217 3.36671 0 2.16986
199 1 24.575 5.10175 0 -0.34491
201 1 26.3187 4.74962 0 0.673344
203 1 26.9441 3.98667 0 -0.0641925
205 1 28.3817 4.06872 0 0.536179
207 1 29.6514 4.31775 0 0.616427
209 1 30.4534 4.9547 0 0.548443
211 1 32.5253 4.11657 0 0.375916
213 1 33.5054 4.59391 0 -0.405821
215 1 35.2291 4.57708 0 -0.372918
217 1 36.2675 4.21468 0 -0.022259
219 1 37.3834 4.85136 0 0.231932
221 1 38.3787 4.57914 0 -0.15319
223 1 40.1868 4.8357 0 0.658701
225 1 41.3809 4.33377 0 0.696042
227 1 42.7151 4.45587 0 -0.569296
229 1 44.2579 4.74032 0 1.26499
231 1 45.2834 4.24816 0 0.569254