ITEM: TIMESTEP
0
ITEM: NUMBER OF ATOMS
685
ITEM: BOX BOUNDS pp ss pp
0.0000000000000000e+00 5.1374269009840255e+01
-2.2245711031688635e-03 2.2247935602791809e+01
-3.2108918131150160e-01 3.2108918131150160e-01
ITEM: ATOMS id type x y z vx
1 2 0 0 0 0
3 2 1.28436 0 0 0
5 2 2.56871 0 0 0
7 2 3.85307 0 0 0
9 2 5.13743 0 0 0
11 2 6.42178 0 0 0
13 2 7.70614 0 0 0
15 2 8.9905 0 0 0
17 2 10.2749 0 0 0
19 2 11.5592 0 0 0
21 2 12.8436 0 0 0
23 2 14.1279 0 0 0
25 2 15.4123 0 0 0
27 2 16.6966 0 0 0
29 2 17.981 0 0 0
31 2 19.2654 0 0 0
33 2 20.5497 0 0 0
35 2 21.8341 0 0 0
37 2 23.1184 0 0 0
39 2 24.4028 0 0 0
41 2 25.6871 0 0 0
43 2 26.9715 0 0 0
45 2 28.2558 0 0 0
47 2 29.5402 0 0 0
49 2 30.8246 0 0 0
51 2 32.1089 0 0 0
53 2 33.3933 0 0 0
55 2 34.6776 0 0 0
57 2 35.962 0 0 0
59 2 37.2463 0 0 0
61 2 38.5307 0 0 0
63 2 39.8151 0 0 0
65 2 41.0994 0 0 0
67 2 42.3838 0 0 0
69 2 43.6681 0 0 0
71 2 44.9525 0 0 0
73 2 46.2368 0 0 0
75 2 47.5212 0 0 0
77 2 48.8056 0 0 0
79 2 50.0899 0 0 0
2 2 0.642178 1.11229 0 0
4 2 1.92654 1.11229 0 0
6 2 3.21089 1.11229 0 0
8 2 4.49525 1.11229 0 0
10 2 5.77961 1.11229 0 0
12 2 7.06396 1.11229 0 0
14 2 8.34832 1.11229 0 0
16 2 9.63268 1.11229 0 0
18 2 10.917 1.11229 0 0
20 2 12.2014 1.11229 0 0
22 2 13.4857 1.11229 0 0
24 2 14.7701 1.11229 0 0
26 2 16.0545 1.11229 0 0
28 2 17.3388 1.11229 0 0
30 2 18.6232 1.11229 0 0
32 2 19.9075 1.11229 0 0
34 2 21.1919 1.11229 0 0
36 2 22.4762 1.11229 0 0
38 2 23.7606 1.11229 0 0
40 2 25.045 1.11229 0 0
42 2 26.3293 1.11229 0 0
44 2 27.6137 1.11229 0 0
46 2 28.898 1.11229 0 0
48 2 30.1824 1.11229 0 0
50 2 31.4667 1.11229 0 0
52 2 32.7511 1.11229 0 0
54 2 34.0355 1.11229 0 0
56 2 35.3198 1.11229 0 0
58 2 36.6042 1.11229 0 0
60 2 37.8885 1.11229 0 0
62 2 39.1729 1.11229 0 0
64 2 40.4572 1.11229 0 0
66 2 41.7416 1.11229 0 0
68 2 43.026 1.11229 0 0
70 2 44.3103 1.11229 0 0
72 2 45.5947 1.11229 0 0
74 2 46.879 1.11229 0 0
76 2 48.1634 1.11229 0 0
78 2 49.4477 1.11229 0 0
80 2 50.7321 1.11229 0 0
81 2 0 2.22457 0 0
83 2 1.28436 2.22457 0 0
85 2 2.56871 2.22457 0 0
87 2 3.85307 2.22457 0 0
89 2 5.13743 2.22457 0 0
91 2 6.42178 2.22457 0 0
93 2 7.70614 2.22457 0 0
109 2 17.981 2.22457 0 0
111 2 19.2654 2.22457 0 0
113 2 20.5497 2.22457 0 0
115 2 21.8341 2.22457 0 0
117 2 23.1184 2.22457 0 0
119 2 24.4028 2.22457 0 0
121 2 25.6871 2.22457 0 0
123 2 26.9715 2.22457 0 0
125 2 28.2558 2.22457 0 0
127 2 29.5402 2.22457 0 0
129 2 30.8246 2.22457 0 0
131 2 32.1089 2.22457 0 0
133 2 33.3933 2.22457 0 0
135 2 34.6776 2.22457 0 0
137 2 35.962 2.22457 0 0
139 2 37.2463 2.22457 0 0
141 2 38.5307 2.22457 0 0
143 2 39.8151 2.22457 0 0
145 2 41.0994 2.22457 0 0
147 2 42.3838 2.22457 0 0
149 2 43.6681 2.22457 0 0
151 2 44.9525 2.22457 0 0
153 2 46.2368 2.22457 0 0
155 2 47.5212 2.22457 0 0
157 2 48.8056 2.22457 0 0
159 2 50.0899 2.22457 0 0
82 1 0.642178 3.33686 0 0.458303
84 1 1.92654 3.33686 0 1.40184
86 1 3.21089 3.33686 0 -0.740812
88 1 4.49525 3.33686 0 -1.37208
90 1 5.77961 3.33686 0 -0.733959
92 1 7.06396 3.33686 0 1.30465
110 1 18.6232 3.33686 0 -0.596981
112 1 19.9075 3.33686 0 0.478446
114 1 21.1919 3.33686 0 -0.098971
116 1 22.4762 3.33686 0 0.117112
118 1 23.7606 3.33686 0 -1.59083
120 1 25.045 3.33686 0 -0.912732
122 1 26.3293 3.33686 0 0.933489
124 1 27.6137 3.33686 0 -0.279907
126 1 28.898 3.33686 0 0.599517
128 1 30.1824 3.33686 0 0.753648
130 1 31.4667 3.33686 0 0.742778
132 1 32.7511 3.33686 0 -0.221244
134 1 34.0355 3.33686 0 0.0545326
136 1 35.3198 3.33686 0 1.43926
138 1 36.6042 3.33686 0 1.48916
140 1 37.8885 3.33686 0 1.42871
142 1 39.1729 3.33686 0 -0.347705
144 1 40.4572 3.33686 0 -1.02492
146 1 41.7416 3.33686 0 -1.34463
148 1 43.026 3.33686 0 1.19881
150 1 44.3103 3.33686 0 0.909776
152 1 45.5947 3.33686 0 -0.533636
154 1 46.879 3.33686 0 -0.71841
156 1 48.1634 3.33686 0 -0.77869
158 1 49.4477 3.33686 0 -1.71179
160 1 50.7321 3.33686 0 1.62116
161 1 0 4.44914 0 0.669299
163 1 1.28436 4.44914 0 -0.552796
165 1 2.56871 4.44914 0 -1.54116
167 1 3.85307 4.44914 0 -1.69423
169 1 5.13743 4.44914 0 -1.59225
171 1 6.42178 4.44914 0 1.40421
191 1 19.2654 4.44914 0 1.64924
193 1 20.5497 4.44914 0 -1.50029
195 1 21.8341 4.44914 0 -1.20928
197 1 23.1184 4.44914 0 1.1942
199 1 24.4028 4.44914 0 1.47302
201 1 25.6871 4.44914 0 -1.25501
203 1 26.9715 4.44914 0 -1.0382
205 1 28.2558 4.44914 0 -1.44743
207 1 29.5402 4.44914 0 0.296154
209 1 30.8246 4.44914 0 0.894743
211 1 32.1089 4.44914 0 -0.923369
213 1 33.3933 4.44914 0 1.51192
215 1 34.6776 4.44914 0 -1.26361
217 1 35.962 4.44914 0 -0.835115
219 1 37.2463 4.44914 0 0.544825
221 1 38.5307 4.44914 0 -0.513489
223 1 39.8151 4.44914 0 0.225678
225 1 41.0994 4.44914 0 0.204438
227 1 42.3838 4.44914 0 1.6944
229 1 43.6681 4.44914 0 1.09521
231 1 44.9525 4.44914 0 1.47708
233 1 46.2368 4.44914 0 0.187676
235 1 47.5212 4.44914 0 0.920286
237 1 48.8056 4.44914 0 -0.286386
239 1 50.0899 4.44914 0 1.62508
162 1 0.642178 5.56143 0 -0.737123
164 1 1.92654 5.56143 0 -0.795137
166 1 3.21089 5.56143 0 -0.37016
168 1 4.49525 5.56143 0 -0.540546
170 1 5.77961 5.56143 0 0.719129
192 1 19.9075 5.56143 0 -0.648473
194 1 21.1919 5.56143 0 0.643004
196 1 22.4762 5.56143 0 -1.29853
198 1 23.7606 5.56143 0 1.40722
200 1 25.045 5.56143 0 0.838426
202 1 26.3293 5.56143 0 -1.3854
204 1 27.6137 5.56143 0 -1.63635
206 1 28.898 5.56143 0 0.076264
208 1 30.1824 5.56143 0 1.19499
210 1 31.4667 5.56143 0 -1.66904
212 1 32.7511 5.56143 0 1.59657
214 1 34.0355 5.56143 0 -1.14109
216 1 35.3198 5.56143 0 1.67822
218 1 36.6042 5.56143 0 0.823599
220 1 37.8885 5.56143 0 1.68367
222 1 39.1729 5.56143 0 -0.602424
224 1 40.4572 5.56143 0 0.704106
226 1 41.7416 5.56143 0 -0.244959
228 1 43.026 5.56143 0 0.840927
230 1 44.3103 5.56143 0 -0.464766
232 1 45.5947 5.56143 0 -0.77987
234 1 46.879 5.56143 0 -0.548168
236 1 48.1634 5.56143 0 -1.49043
238 1 49.4477 5.56143 0 -1.41785
240 1 50.7321 5.56143 0 0.17286
241 1 0 6.67371 0 1.00936
243 1 1.28436 6.67371 0 -1.63548
245 1 2.56871 6.67371 0 -0.552269
247 1 3.85307 6.67371 0 0.0316366
249 1 5.13743 6.67371 0 0.23669
273 1 20.5497 6.67371 0 0.32947
275 1 21.8341 6.67371 0 0.667539
277 1 23.1184 6.67371 0 0.41382
279 1 24.4028 6.67371 0 -1.41035
281 1 25.6871 6.67371 0 0.0974759
283 1 26.9715 6.67371 0 -0.524003
285 1 28.2558 6.67371 0 -0.363773
287 1 29.5402 6.67371 0 -0.632725
289 1 30.8246 6.67371 0 -1.07041
291 1 32.1089 6.67371 0 1.45867
293 1 33.3933 6.67371 0 0.119902
295 1 34.6776 6.67371 0 -1.32801
297 1 35.962 6.67371 0 -0.437013
299 1 37.2463 6.67371 0 1.49696
301 1 38.5307 6.67371 0 0.236412
303 1 39.8151 6.67371 0 -1.54478
305 1 41.0994 6.67371 0 1.65466
307 1 42.3838 6.67371 0 -0.474535
309 1 43.6681 6.67371 0 1.05107
311 1 44.9525 6.67371 0 1.25828
313 1 46.2368 6.67371 0 -0.979385
315 1 47.5212 6.67371 0 0.0281104
317 1 48.8056 6.67371 0 1.06917
319 1 50.0899 6.67371 0 0.0923916
242 1 0.642178 7.786 0 -0.517119
244 1 1.92654 7.786 0 -0.538689
246 1 3.21089 7.786 0 0.965244
248 1 4.49525 7.786 0 1.68683
274 1 21.1919 7.786 0 -0.395994
276 1 22.4762 7.786 0 0.372132
278 1 23.7606 7.786 0 -1.56874
280 1 25.045 7.786 0 1.39887
282 1 26.3293 7.786 0 -1.286
284 1 27.6137 7.786 0 -0.452809
286 1 28.898 7.786 0 -0.815879
288 1 30.1824 7.786 0 -0.641062
290 1 31.4667 7.786 0 1.1992
292 1 32.7511 7.786 0 -1.66015
294 1 34.0355 7.786 0 -1.38127
296 1 35.3198 7.786 0 0.527188
298 1 36.6042 7.786 0 -1.2289
300 1 37.8885 7.786 0 -0.226631
302 1 39.1729 7.786 0 1.5762
304 1 40.4572 7.786 0 0.655631
306 1 41.7416 7.786 0 1.3722
308 1 43.026 7.786 0 0.770299
310 1 44.3103 7.786 0 -1.40611
312 1 45.5947 7.786 0 0.865536
314 1 46.879 7.786 0 -1.40204
316 1 48.1634 7.786 0 -1.26444
318 1 49.4477 7.786 0 0.578081
320 1 50.7321 7.786 0 0.54751
321 1 0 8.89828 0 -1.32334
323 1 1.28436 8.89828 0 -1.09035
325 1 2.56871 8.89828 0 -1.46385
327 1 3.85307 8.89828 0 -0.314506
355 1 21.8341 8.89828 0 1.43622
357 1 23.1184 8.89828 0 0.584779
359 1 24.4028 8.89828 0 -0.323866
361 1 25.6871 8.89828 0 -1.52872
363 1 26.9715 8.89828 0 1.46096
365 1 28.2558 8.89828 0 -1.18342
367 1 29.5402 8.89828 0 1.50276
369 1 30.8246 8.89828 0 1.47861
371 1 32.1089 8.89828 0 1.1569
373 1 33.3933 8.89828 0 1.64259
375 1 34.6776 8.89828 0 -0.259918
377 1 35.962 8.89828 0 -1.17104
379 1 37.2463 8.89828 0 0.951468
381 1 38.5307 8.89828 0 1.47808
383 1 39.8151 8.89828 0 0.779988
385 1 41.0994 8.89828 0 0.391308
387 1 42.3838 8.89828 0 -1.27322
389 1 43.6681 8.89828 0 0.678504
391 1 44.9525 8.89828 0 1.21724
393 1 46.2368 8.89828 0 1.53985
395 1 47.5212 8.89828 0 0.631391
397 1 48.8056 8.89828 0 1.4035
399 1 50.0899 8.89828 0 -0.679673
322 1 0.642178 10.0106 0 -0.0645629
324 1 1.92654 10.0106 0 1.15056
354 1 21.1919 10.0106 0 1.02556
356 1 22.4762 10.0106 0 -0.98654
358 1 23.7606 10.0106 0 -0.942403
360 1 25.045 10.0106 0 -1.58549
362 1 26.3293 10.0106 0 -0.677505
364 1 27.6137 10.0106 0 1.44042
366 1 28.898 10.0106 0 -1.40865
368 1 30.1824 10.0106 0 1.53483
370 1 31.4667 10.0106 0 -0.724529
372 1 32.7511 10.0106 0 1.50504
374 1 34.0355 10.0106 0 -0.303941
376 1 35.3198 10.0106 0 -0.998646
378 1 36.6042 10.0106 0 0.312506
380 1 37.8885 10.0106 0 0.796521
382 1 39.1729 10.0106 0 -1.38047
384 1 40.4572 10.0106 0 0.531698
386 1 41.7416 10.0106 0 -1.15152
388 1 43.026 10.0106 0 0.15914
390 1 44.3103 10.0106 0 1.16844
392 1 45.5947 10.0106 0 -1.4553
394 1 46.879 10.0106 0 0.577386
396 1 48.1634 10.0106 0 -0.477263
398 1 49.4477 10.0106 0 0.303528
400 1 50.7321 10.0106 0 -1.38248
401 1 0 11.1229 0 0.815817
403 1 1.28436 11.1229 0 0.243756
433 1 20.5497 11.1229 0 0.97079
435 1 21.8341 11.1229 0 -1.00435
437 1 23.1184 11.1229 0 -0.59008
439 1 24.4028 11.1229 0 0.57978
441 1 25.6871 11.1229 0 -0.461561
443 1 26.9715 11.1229 0 0.907903
445 1 28.2558 11.1229 0 -1.00659
447 1 29.5402 11.1229 0 0.823138
449 1 30.8246 11.1229 0 0.716422
451 1 32.1089 11.1229 0 0.119803
453 1 33.3933 11.1229 0 -1.3808
455 1 34.6776 11.1229 0 0.774057
457 1 35.962 11.1229 0 1.26055
459 1 37.2463 11.1229 0 -0.549843
461 1 38.5307 11.1229 0 0.502507
463 1 39.8151 11.1229 0 1.72673
465 1 41.0994 11.1229 0 -0.296467
467 1 42.3838 11.1229 0 1.01453
469 1 43.6681 11.1229 0 -1.64518
471 1 44.9525 11.1229 0 -0.721706
473 1 46.2368 11.1229 0 1.2825
475 1 47.5212 11.1229 0 -0.195887
477 1 48.8056 11.1229 0 -0.774732
479 1 50.0899 11.1229 0 0.563223
402 1 0.642178 12.2351 0 0.402946
432 1 19.9075 12.2351 0 1.46424
434 1 21.1919 12.2351 0 -1.62708
436 1 22.4762 12.2351 0 1.5263
438 1 23.7606 12.2351 0 0.800729
440 1 25.045 12.2351 0 -0.17722
442 1 26.3293 12.2351 0 -0.468315
444 1 27.6137 12.2351 0 1.46948
446 1 28.898 12.2351 0 0.371294
448 1 30.1824 12.2351 0 -1.71385
450 1 31.4667 12.2351 0 0.370893
452 1 32.7511 12.2351 0 1.29045
454 1 34.0355 12.2351 0 1.17151
456 1 35.3198 12.2351 0 0.940621
458 1 36.6042 12.2351 0 -0.486459
460 1 37.8885 12.2351 0 -0.057248
462 1 39.1729 12.2351 0 0.161546
464 1 40.4572 12.2351 0 0.00395076
466 1 41.7416 12.2351 0 -0.693259
468 1 43.026 12.2351 0 -1.38103
470 1 44.3103 12.2351 0 0.106221
472 1 45.5947 12.2351 0 -1.59553
474 1 46.879 12.2351 0 -0.56858
476 1 48.1634 12.2351 0 -0.0103236
478 1 49.4477 12.2351 0 -0.882914
480 1 50.7321 12.2351 0 0.768868
481 1 0 13.3474 0 -1.17803
511 1 19.2654 13.3474 0 1.40613
513 1 20.5497 13.3474 0 -0.163868
515 1 21.8341 13.3474 0 -0.199558
517 1 23.1184 13.3474 0 0.360821
519 1 24.4028 13.3474 0 -0.247933
521 1 25.6871 13.3474 0 1.27146
523 1 26.9715 13.3474 0 0.136942
525 1 28.2558 13.3474 0 0.539839
527 1 29.5402 13.3474 0 -0.657974
529 1 30.8246 13.3474 0 -1.3251
531 1 32.1089 13.3474 0 -1.64232
533 1 33.3933 13.3474 0 0.553268
535 1 34.6776 13.3474 0 -0.831313
537 1 35.962 13.3474 0 -0.511848
539 1 37.2463 13.3474 0 0.390235
541 1 38.5307 13.3474 0 -0.671622
543 1 39.8151 13.3474 0 -1.67736
545 1 41.0994 13.3474 0 -1.04317
547 1 42.3838 13.3474 0 0.791544
549 1 43.6681 13.3474 0 0.883233
551 1 44.9525 13.3474 0 -1.4926
553 1 46.2368 13.3474 0 1.18424
555 1 47.5212 13.3474 0 1.64079
557 1 48.8056 13.3474 0 -0.727152
559 1 50.0899 13.3474 0 0.115355
482 1 0.642178 14.4597 0 1.29954
510 1 18.6232 14.4597 0 -1.12786
512 1 19.9075 14.4597 0 0.678894
514 1 21.1919 14.4597 0 -1.68593
516 1 22.4762 14.4597 0 -0.377424
518 1 23.7606 14.4597 0 -0.501982
520 1 25.045 14.4597 0 -0.751405
522 1 26.3293 14.4597 0 1.26471
524 1 27.6137 14.4597 0 0.317352
526 1 28.898 14.4597 0 -0.142023
528 1 30.1824 14.4597 0 0.464821
530 1 31.4667 14.4597 0 -1.45025
532 1 32.7511 14.4597 0 -0.248105
534 1 34.0355 14.4597 0 -0.31091
536 1 35.3198 14.4597 0 1.67168
538 1 36.6042 14.4597 0 -0.693609
540 1 37.8885 14.4597 0 -0.836816
542 1 39.1729 14.4597 0 -1.55447
544 1 40.4572 14.4597 0 -1.4322
546 1 41.7416 14.4597 0 0.524916
548 1 43.026 14.4597 0 -0.107592
550 1 44.3103 14.4597 0 -0.413564
552 1 45.5947 14.4597 0 -0.618343
554 1 46.879 14.4597 0 -1.3357
556 1 48.1634 14.4597 0 0.989226
558 1 49.4477 14.4597 0 -1.66005
560 1 50.7321 14.4597 0 -0.043481
561 1 0 15.572 0 -1.3109
563 1 1.28436 15.572 0 0.710206
589 1 17.981 15.572 0 0.379206
591 1 19.2654 15.572 0 1.00606
593 1 20.5497 15.572 0 1.06297
595 1 21.8341 15.572 0 -1.66723
597 1 23.1184 15.572 0 0.105601
599 1 24.4028 15.572 0 -0.290989
601 1 25.6871 15.572 0 -0.496996
603 1 26.9715 15.572 0 -1.24492
605 1 28.2558 15.572 0 1.18081
607 1 29.5402 15.572 0 0.706441
609 1 30.8246 15.572 0 -0.204326
611 1 32.1089 15.572 0 -0.890496
613 1 33.3933 15.572 0 -0.748176
615 1 34.6776 15.572 0 -0.8464
617 1 35.962 15.572 0 -0.838477
619 1 37.2463 15.572 0 -0.988851
621 1 38.5307 15.572 0 -0.929961
623 1 39.8151 15.572 0 -1.66226
625 1 41.0994 15.572 0 1.56581
627 1 42.3838 15.572 0 0.510503
629 1 43.6681 15.572 0 -0.170926
631 1 44.9525 15.572 0 -0.866409
633 1 46.2368 15.572 0 -1.05672
635 1 47.5212 15.572 0 0.647107
637 1 48.8056 15.572 0 0.739312
639 1 50.0899 15.572 0 -1.38311
562 1 0.642178 16.6843 0 -1.43733
564 1 1.92654 16.6843 0 -1.73447
574 1 8.34832 16.6843 0 0.86751
576 1 9.63268 16.6843 0 0.368239
578 1 10.917 16.6843 0 -1.5496
580 1 12.2014 16.6843 0 0.557802
582 1 13.4857 16.6843 0 0.417891
584 1 14.7701 16.6843 0 -0.0792818
586 1 16.0545 16.6843 0 0.111167
588 1 17.3388 16.6843 0 -0.346379
590 1 18.6232 16.6843 0 -0.171004
592 1 19.9075 16.6843 0 1.55708
594 1 21.1919 16.6843 0 -1.51366
596 1 22.4762 16.6843 0 -1.39332
598 1 23.7606 16.6843 0 -0.44884
600 1 25.045 16.6843 0 -0.866008
602 1 26.3293 16.6843 0 -0.653867
604 1 27.6137 16.6843 0 -0.23679
606 1 28.898 16.6843 0 -1.66318
608 1 30.1824 16.6843 0 0.997192
610 1 31.4667 16.6843 0 -0.32567
612 1 32.7511 16.6843 0 0.147198
614 1 34.0355 16.6843 0 1.15797
616 1 35.3198 16.6843 0 0.689808
618 1 36.6042 16.6843 0 0.68946
620 1 37.8885 16.6843 0 0.302128
622 1 39.1729 16.6843 0 0.300911
624 1 40.4572 16.6843 0 1.3823
626 1 41.7416 16.6843 0 -0.649309
628 1 43.026 16.6843 0 0.315167
630 1 44.3103 16.6843 0 1.54057
632 1 45.5947 16.6843 0 -1.006
634 1 46.879 16.6843 0 1.083
636 1 48.1634 16.6843 0 -0.0494784
638 1 49.4477 16.6843 0 0.830964
640 1 50.7321 16.6843 0 -0.0446291
641 1 0 17.7966 0 -0.0147571
643 1 1.28436 17.7966 0 -1.013
645 1 2.56871 17.7966 0 0.991042
647 1 3.85307 17.7966 0 0.309264
649 1 5.13743 17.7966 0 -0.510711
651 1 6.42178 17.7966 0 1.48823
653 1 7.70614 17.7966 0 0.421294
655 1 8.9905 17.7966 0 -1.00865
657 1 10.2749 17.7966 0 -0.209979
659 1 11.5592 17.7966 0 1.42293
661 1 12.8436 17.7966 0 -1.01861
663 1 14.1279 17.7966 0 1.57076
665 1 15.4123 17.7966 0 0.449195
667 1 16.6966 17.7966 0 -0.674077
669 1 17.981 17.7966 0 1.19988
671 1 19.2654 17.7966 0 -1.40285
673 1 20.5497 17.7966 0 0.397253
675 1 21.8341 17.7966 0 -1.08667
677 1 23.1184 17.7966 0 1.65316
679 1 24.4028 17.7966 0 -1.53672
681 1 25.6871 17.7966 0 0.965387
683 1 26.9715 17.7966 0 -0.100403
685 1 28.2558 17.7966 0 -0.576901
572 1 29.5402 17.7966 0 -0.127647
570 1 30.8246 17.7966 0 -0.199893
568 1 32.1089 17.7966 0 -1.06188
566 1 33.3933 17.7966 0 1.33732
492 1 34.6776 17.7966 0 -1.28595
490 1 35.962 17.7966 0 -0.99912
488 1 37.2463 17.7966 0 -1.46081
486 1 38.5307 17.7966 0 1.71
484 1 39.8151 17.7966 0 0.0492499
410 1 41.0994 17.7966 0 0.27384
408 1 42.3838 17.7966 0 1.07468
406 1 43.6681 17.7966 0 -0.626877
404 1 44.9525 17.7966 0 0.731771
326 1 46.2368 17.7966 0 0.305065
585 1 47.5212 17.7966 0 0.548155
581 1 48.8056 17.7966 0 -1.58483
577 1 50.0899 17.7966 0 1.6221
642 1 0.642178 18.9089 0 -1.123
644 1 1.92654 18.9089 0 1.22223
646 1 3.21089 18.9089 0 1.14215
648 1 4.49525 18.9089 0 0.50671
650 1 5.77961 18.9089 0 -1.09418
652 1 7.06396 18.9089 0 -1.63963
654 1 8.34832 18.9089 0 0.672671
656 1 9.63268 18.9089 0 0.118941
658 1 10.917 18.9089 0 1.50991
660 1 12.2014 18.9089 0 -1.00593
662 1 13.4857 18.9089 0 1.4579
664 1 14.7701 18.9089 0 -1.45498
666 1 16.0545 18.9089 0 -1.30563
668 1 17.3388 18.9089 0 -0.520475
670 1 18.6232 18.9089 0 -0.0655335
672 1 19.9075 18.9089 0 1.64694
674 1 21.1919 18.9089 0 -0.559336
676 1 22.4762 18.9089 0 -0.349132
678 1 23.7606 18.9089 0 1.71741
680 1 25.045 18.9089 0 -0.115363
682 1 26.3293 18.9089 0 -0.927222
684 1 27.6137 18.9089 0 0.69597
573 1 28.898 18.9089 0 0.398389
571 1 30.1824 18.9089 0 1.50785
569 1 31.4667 18.9089 0 -1.18019
567 1 32.7511 18.9089 0 1.43105
565 1 34.0355 18.9089 0 0.170147
491 1 35.3198 18.9089 0 0.397343
489 1 36.6042 18.9089 0 1.50693
487 1 37.8885 18.9089 0 1.15932
485 1 39.1729 18.9089 0 0.972498
483 1 40.4572 18.9089 0 1.02871
409 1 41.7416 18.9089 0 0.331241
407 1 43.026 18.9089 0 0.865402
405 1 44.3103 18.9089 0 -0.725486
328 1 45.5947 18.9089 0 -0.313696
587 1 46.879 18.9089 0 -0.601652
583 1 48.1634 18.9089 0 0.823677
579 1 49.4477 18.9089 0 -0.381988
575 1 50.7321 18.9089 0 1.54642
509 3 0 20.0211 0 0
507 3 1.28436 20.0211 0 0
505 3 2.56871 20.0211 0 0
503 3 3.85307 20.0211 0 0
501 3 5.13743 20.0211 0 0
499 3 6.42178 20.0211 0 0
497 3 7.70614 20.0211 0 0
495 3 8.9905 20.0211 0 0
493 3 10.2749 20.0211 0 0
430 3 11.5592 20.0211 0 0
428 3 12.8436 20.0211 0 0
426 3 14.1279 20.0211 0 0
424 3 15.4123 20.0211 0 0
422 3 16.6966 20.0211 0 0
420 3 17.981 20.0211 0 0
418 3 19.2654 20.0211 0 0
416 3 20.5497 20.0211 0 0
414 3 21.8341 20.0211 0 0
412 3 23.1184 20.0211 0 0
353 3 24.4028 20.0211 0 0
351 3 25.6871 20.0211 0 0
349 3 26.9715 20.0211 0 0
347 3 28.2558 20.0211 0 0
345 3 29.5402 20.0211 0 0
343 3 30.8246 20.0211 0 0
341 3 32.1089 20.0211 0 0
339 3 33.3933 20.0211 0 0
337 3 34.6776 20.0211 0 0
335 3 35.962 20.0211 0 0
333 3 37.2463 20.0211 0 0
331 3 38.5307 20.0211 0 0
329 3 39.8151 20.0211 0 0
271 3 41.0994 20.0211 0 0
269 3 42.3838 20.0211 0 0
267 3 43.6681 20.0211 0 0
265 3 44.9525 20.0211 0 0
263 3 46.2368 20.0211 0 0
261 3 47.5212 20.0211 0 0
259 3 48.8056 20.0211 0 0
257 3 50.0899 20.0211 0 0
508 3 0.642178 21.1334 0 0
506 3 1.92654 21.1334 0 0
504 3 3.21089 21.1334 0 0
502 3 4.49525 21.1334 0 0
500 3 5.77961 21.1334 0 0
498 3 7.06396 21.1334 0 0
496 3 8.34832 21.1334 0 0
494 3 9.63268 21.1334 0 0
431 3 10.917 21.1334 0 0
429 3 12.2014 21.1334 0 0
427 3 13.4857 21.1334 0 0
425 3 14.7701 21.1334 0 0
423 3 16.0545 21.1334 0 0
421 3 17.3388 21.1334 0 0
419 3 18.6232 21.1334 0 0
417 3 19.9075 21.1334 0 0
415 3 21.1919 21.1334 0 0
413 3 22.4762 21.1334 0 0
411 3 23.7606 21.1334 0 0
352 3 25.045 21.1334 0 0
350 3 26.3293 21.1334 0 0
348 3 27.6137 21.1334 0 0
346 3 28.898 21.1334 0 0
344 3 30.1824 21.1334 0 0
342 3 31.4667 21.1334 0 0
340 3 32.7511 21.1334 0 0
338 3 34.0355 21.1334 0 0
336 3 35.3198 21.1334 0 0
334 3 36.6042 21.1334 0 0
332 3 37.8885 21.1334 0 0
330 3 39.1729 21.1334 0 0
272 3 40.4572 21.1334 0 0
270 3 41.7416 21.1334 0 0
268 3 43.026 21.1334 0 0
266 3 44.3103 21.1334 0 0
264 3 45.5947 21.1334 0 0
262 3 46.879 21.1334 0 0
260 3 48.1634 21.1334 0 0
258 3 49.4477 21.1334 0 0
256 3 50.7321 21.1334 0 0
255 3 0 22.2457 0 0
254 3 1.28436 22.2457 0 0
253 3 2.56871 22.2457 0 0
252 3 3.85307 22.2457 0 0
251 3 5.13743 22.2457 0 0
250 3 6.42178 22.2457 0 0
190 3 7.70614 22.2457 0 0
189 3 8.9905 22.2457 0 0
188 3 10.2749 22.2457 0 0
187 3 11.5592 22.2457 0 0
186 3 12.8436 22.2457 0 0
185 3 14.1279 22.2457 0 0
184 3 15.4123 22.2457 0 0
183 3 16.6966 22.2457 0 0
182 3 17.981 22.2457 0 0
181 3 19.2654 22.2457 0 0
180 3 20.5497 22.2457 0 0
179 3 21.8341 22.2457 0 0
178 3 23.1184 22.2457 0 0
177 3 24.4028 22.2457 0 0
176 3 25.6871 22.2457 0 0
175 3 26.9715 22.2457 0 0
174 3 28.2558 22.2457 0 0
173 3 29.5402 22.2457 0 0
172 3 30.8246 22.2457 0 0
108 3 32.1089 22.2457 0 0
107 3 33.3933 22.2457 0 0
106 3 34.6776 22.2457 0 0
105 3 35.962 22.2457 0 0
104 3 37.2463 22.2457 0 0
103 3 38.5307 22.2457 0 0
102 3 39.8151 22.2457 0 0
101 3 41.0994 22.2457 0 0
100 3 42.3838 22.2457 0 0
99 3 43.6681 22.2457 0 0
98 3 44.9525 22.2457 0 0
97 3 46.2368 22.2457 0 0
96 3 47.5212 22.2457 0 0
95 3 48.8056 22.2457 0 0
94 3 50.0899 22.2457 0 0
ITEM: TIMESTEP
500
ITEM: NUMBER OF ATOMS
685
ITEM: BOX BOUNDS pp ss pp
0.0000000000000000e+00 5.1374269009840255e+01
-2.2245711031688635e-03 2.5110395470030511e+01
-3.2108918131150160e-01 3.2108918131150160e-01
ITEM: ATOMS id type x y z vx
1 2 0 0 0 0
3 2 1.28436 0 0 0
5 2 2.56871 0 0 0
7 2 3.85307 0 0 0
9 2 5.13743 0 0 0
11 2 6.42178 0 0 0
13 2 7.70614 0 0 0
15 2 8.9905 0 0 0
17 2 10.2749 0 0 0
19 2 11.5592 0 0 0
21 2 12.8436 0 0 0
23 2 14.1279 0 0 0
25 2 15.4123 0 0 0
27 2 16.6966 0 0 0
29 2 17.981 0 0 0
31 2 19.2654 0 0 0
33 2 20.5497 0 0 0
35 2 21.8341 0 0 0
37 2 23.1184 0 0 0
39 2 24.4028 0 0 0
41 2 25.6871 0 0 0
43 2 26.9715 0 0 0
45 2 28.2558 0 0 0
47 2 29.5402 0 0 0
49 2 30.8246 0 0 0
51 2 32.1089 0 0 0
53 2 33.3933 0 0 0
55 2 34.6776 0 0 0
57 2 35.962 0 0 0
59 2 37.2463 0 0 0
61 2 38.5307 0 0 0
63 2 39.8151 0 0 0
65 2 41.0994 0 0 0
67 2 42.3838 0 0 0
69 2 43.6681 0 0 0
71 2 44.9525 0 0 0
73 2 46.2368 0 0 0
75 2 47.5212 0 0 0
77 2 48.8056 0 0 0
79 2 50.0899 0 0 0
2 2 0.642178 1.11229 0 0
4 2 1.92654 1.11229 0 0
6 2 3.21089 1.11229 0 0
8 2 4.49525 1.11229 0 0
10 2 5.77961 1.11229 0 0
12 2 7.06396 1.11229 0 0
14 2 8.34832 1.11229 0 0
16 2 9.63268 1.11229 0 0
18 2 10.917 1.11229 0 0
20 2 12.2014 1.11229 0 0
22 2 13.4857 1.11229 0 0
24 2 14.7701 1.11229 0 0
26 2 16.0545 1.11229 0 0
28 2 17.3388 1.11229 0 0
30 2 18.6232 1.11229 0 0
32 2 19.9075 1.11229 0 0
34 2 21.1919 1.11229 0 0
36 2 22.4762 1.11229 0 0
38 2 23.7606 1.11229 0 0
40 2 25.045 1.11229 0 0
42 2 26.3293 1.11229 0 0
44 2 27.6137 1.11229 0 0
46 2 28.898 1.11229 0 0
48 2 30.1824 1.11229 0 0
50 2 31.4667 1.11229 0 0
52 2 32.7511 1.11229 0 0
54 2 34.0355 1.11229 0 0
56 2 35.3198 1.11229 0 0
58 2 36.6042 1.11229 0 0
60 2 37.8885 1.11229 0 0
62 2 39.1729 1.11229 0 0
64 2 40.4572 1.11229 0 0
66 2 41.7416 1.11229 0 0
68 2 43.026 1.11229 0 0
70 2 44.3103 1.11229 0 0
72 2 45.5947 1.11229 0 0
74 2 46.879 1.11229 0 0
76 2 48.1634 1.11229 0 0
78 2 49.4477 1.11229 0 0
80 2 50.7321 1.11229 0 0
81 2 0 2.22457 0 0
83 2 1.28436 2.22457 0 0
85 2 2.56871 2.22457 0 0
87 2 3.85307 2.22457 0 0
89 2 5.13743 2.22457 0 0
91 2 6.42178 2.22457 0 0
93 2 7.70614 2.22457 0 0
109 2 17.981 2.22457 0 0
111 2 19.2654 2.22457 0 0
113 2 20.5497 2.22457 0 0
115 2 21.8341 2.22457 0 0
117 2 23.1184 2.22457 0 0
119 2 24.4028 2.22457 0 0
121 2 25.6871 2.22457 0 0
123 2 26.9715 2.22457 0 0
125 2 28.2558 2.22457 0 0
127 2 29.5402 2.22457 0 0
129 2 30.8246 2.22457 0 0
131 2 32.1089 2.22457 0 0
133 2 33.3933 2.22457 0 0
135 2 34.6776 2.22457 0 0
137 2 35.962 2.22457 0 0
139 2 37.2463 2.22457 0 0
141 2 38.5307 2.22457 0 0
143 2 39.8151 2.22457 0 0
145 2 41.0994 2.22457 0 0
147 2 42.3838 2.22457 0 0
149 2 43.6681 2.22457 0 0
151 2 44.9525 2.22457 0 0
153 2 46.2368 2.22457 0 0
155 2 47.5212 2.22457 0 0
157 2 48.8056 2.22457 0 0
159 2 50.0899 2.22457 0 0
82 1 0.181653 3.76577 0 -0.0383347
84 1 2.31159 3.33364 0 0.65129
86 1 2.823 4.26015 0 0.341831
88 1 3.55207 3.54929 0 0.0224423
90 1 4.44049 3.84824 0 0.199719
92 1 5.60457 3.92826 0 -0.793386
110 1 21.0446 3.84285 0 1.16743
112 1 21.7119 4.85251 0 1.92895
114 1 22.1427 3.80923 0 0.604998
116 1 23.5486 3.50924 0 -0.00339668
118 1 24.6254 3.60649 0 -0.174063
120 1 26.0271 3.84754 0 0.539269
122 1 26.869 3.23165 0 -0.328827
124 1 27.8637 3.50238 0 0.413892
126 1 29.0114 3.09169 0 1.25832
128 1 30.0907 3.43967 0 -0.149331
130 1 31.769 3.22865 0 -0.718038
132 1 32.8742 3.23774 0 2.06496
134 1 34.142 3.18189 0 0.149661
136 1 36.7126 3.12176 0 -0.705645
138 1 37.8082 3.04679 0 1.37194
140 1 39.1241 3.13727 0 1.87563
142 1 39.8429 3.9605 0 1.46307
144 1 40.3681 3.07035 0 0.0263822
146 1 41.8588 3.11015 0 -2.08381
148 1 42.964 3.18233 0 -0.655137
150 1 44.2383 3.25334 0 -0.350947
152 1 45.5118 3.0217 0 -1.21491
154 1 46.8601 3.08089 0 0.786302
156 1 48.1058 3.36869 0 -1.79494
158 1 49.4022 3.12502 0 -0.317865
160 1 50.401 3.65183 0 1.02552
161 1 50.6767 5.01616 0 -0.00478639
163 1 0.429349 5.05871 0 -0.433238
165 1 1.17667 3.47607 0 -1.27915
167 1 2.47732 5.27007 0 1.50352
169 1 3.70388 5.4237 0 2.32804
171 1 4.78853 5.29886 0 0.113092
191 1 21.3174 6.35823 0 1.70494
193 1 22.8236 4.87697 0 -0.376873
195 1 24.054 4.67724 0 0.46932
197 1 25.4301 4.79682 0 -0.459122
199 1 26.8271 5.40029 0 0.818216
201 1 26.7426 6.92886 0 2.33642
203 1 27.6335 4.50794 0 0.947537
205 1 28.8467 4.17235 0 0.725595
207 1 31.0769 4.25826 0 0.545836
209 1 32.0858 4.80936 0 0.374056
211 1 33.4481 4.24521 0 1.79006
213 1 34.6923 4.08381 0 0.645183
215 1 35.5536 3.19429 0 -0.272542
217 1 36.4722 4.1819 0 -1.70667
219 1 37.3305 5.10757 0 0.461227
221 1 38.363 4.39461 0 0.273907
223 1 40.4687 4.80308 0 -0.533173
225 1 41.1934 3.95567 0 -1.44402
227 1 42.4193 4.48923 0 -2.80624
229 1 43.7567 4.19444 0 -0.136083
231 1 44.8984 4.13105 0 0.926838
233 1 46.1305 3.89366 0 -0.149237
235 1 47.127 4.29124 0 -1.00766
237 1 48.1608 4.4656 0 -0.114775
239 1 49.2613 4.59485 0 0.348993
162 1 49.811 5.57742 0 -0.0960887
164 1 51.2613 5.94143 0 0.257681
166 1 1.4047 5.37523 0 0.115762
168 1 2.16259 6.50884 0 0.0282367
170 1 4.4527 6.29887 0 -0.794873
192 1 23.0791 5.99917 0 -0.450278
194 1 23.8816 6.61709 0 0.0673061
196 1 24.4957 5.5725 0 -0.68454
198 1 25.7037 5.94824 0 -0.72669
200 1 26.3886 7.89533 0 1.37027
202 1 27.7473 5.85061 0 -0.381591
204 1 28.9929 5.53216 0 1.62838
206 1 30.165 4.92518 0 0.223183
208 1 31.4195 5.53617 0 0.641299
210 1 32.6993 5.88754 0 1.57375
212 1 33.9107 5.31726 0 0.508984
214 1 35.4956 5.03498 0 1.421
216 1 36.3049 5.77108 0 0.602074
218 1 37.4041 6.23914 0 0.745241
220 1 38.3792 5.67261 0 1.7614
222 1 39.3776 4.93561 0 0.84735
224 1 40.4028 6.43136 0 -0.11715
226 1 41.4082 5.32972 0 -0.248856
228 1 42.2967 5.7414 0 -1.29648
230 1 44.0202 5.18652 0 0.228622
232 1 44.8787 5.80067 0 -1.59728
234 1 45.7473 5.07171 0 0.485141
236 1 46.8267 5.32392 0 -1.37292
238 1 48.0237 5.69707 0 -2.76652
240 1 48.7632 6.46348 0 0.211082
241 1 49.7473 6.66229 0 1.16639
243 1 51.0251 7.23792 0 -1.48152
245 1 0.864989 7.17042 0 -0.0425814
247 1 3.41897 6.66199 0 0.742558
249 1 4.12302 7.69375 0 0.875424
273 1 21.6914 7.7328 0 -0.837322
275 1 23.5306 7.53395 0 2.09437
277 1 24.5742 7.49879 0 1.79949
279 1 25.6165 7.00382 0 -1.63471
281 1 27.4294 7.91187 0 1.49197
283 1 27.8001 6.97586 0 1.30513
285 1 28.77 6.72056 0 -0.732497
287 1 30.3104 6.06329 0 0.785669
289 1 31.1457 6.54896 0 1.81078
291 1 33.6805 6.69853 0 2.69179
293 1 34.6466 6.166 0 0.754532
295 1 35.5141 6.94732 0 -0.23429
297 1 36.5419 6.8171 0 0.784542
299 1 38.0858 7.09882 0 0.986333
301 1 39.098 7.59038 0 -0.820115
303 1 39.043 6.50128 0 -0.390983
305 1 41.5775 6.35633 0 0.873505
307 1 42.3622 6.83138 0 0.209547
309 1 43.395 6.23707 0 0.681277
311 1 44.4419 7.31162 0 -1.90595
313 1 45.4574 7.19893 0 1.62943
315 1 45.9012 6.24122 0 -0.506126
317 1 47.2025 6.52749 0 -0.720633
319 1 48.9365 7.54222 0 0.574465
242 1 49.9847 7.61109 0 -1.58306
244 1 0.312047 8.13171 0 0.489418
246 1 2.51506 7.5758 0 -1.19558
248 1 3.44063 8.44152 0 0.0629126
274 1 21.7089 8.84032 0 -1.10087
276 1 22.8055 8.794 0 -0.0127739
278 1 25.4714 8.55467 0 -0.959996
280 1 26.3696 9.30327 0 0.0456898
282 1 27.6724 9.055 0 -0.643555
284 1 28.813 7.94802 0 1.73389
286 1 30.0679 7.29396 0 1.27868
288 1 31.0727 7.67943 0 1.7983
290 1 32.1901 6.75686 0 0.91762
292 1 33.2861 7.79755 0 0.112717
294 1 34.9682 7.87073 0 1.48522
296 1 36.1497 7.88838 0 0.754449
298 1 37.188 7.73074 0 0.118671
300 1 38.1462 8.14197 0 -0.564618
302 1 40.2045 7.4622 0 0.392366
304 1 41.4853 7.44749 0 0.467683
306 1 42.4169 7.87919 0 -0.576567
308 1 43.2972 7.35189 0 0.0819286
310 1 44.1434 8.38106 0 0.116757
312 1 45.2127 8.30136 0 -0.102402
314 1 46.55 7.53665 0 -0.266028
316 1 47.9571 7.27267 0 0.0744997
318 1 48.3524 8.37619 0 -0.685986
320 1 49.7041 8.84699 0 1.49993
321 1 50.8684 8.97953 0 1.70326
323 1 0.568386 9.2442 0 0.191064
325 1 1.33153 8.35457 0 -2.14965
327 1 2.56454 9.14991 0 -0.51653
355 1 22.6739 9.89734 0 0.938705
357 1 24.0681 8.45412 0 0.665957
359 1 24.9675 9.61335 0 -0.731433
361 1 26.0941 10.5551 0 1.39409
363 1 29.2245 8.96915 0 0.631988
365 1 30.1218 8.32139 0 0.87076
367 1 31.8491 9.16026 0 1.50808
369 1 32.2657 7.85741 0 1.63537
371 1 32.8454 8.83949 0 -0.553348
373 1 34.027 8.57332 0 -0.200036
375 1 35.4644 8.84177 0 0.884196
377 1 36.6468 8.92568 0 1.3262
379 1 38.0096 9.24253 0 0.17536
381 1 39.029 8.67088 0 1.01249
383 1 40.0587 8.58179 0 0.517938
385 1 41.1074 8.62147 0 0.81414
387 1 42.3287 8.99661 0 -0.696505
389 1 43.3554 9.16729 0 -0.248538
391 1 45.2982 9.32952 0 0.800328
393 1 46.209 8.59797 0 -1.09222
395 1 46.9342 9.75257 0 -0.0337316
397 1 47.3616 8.17996 0 -0.168281
399 1 48.9047 9.38801 0 -2.17371
322 1 51.3224 10.3968 0 1.01324
324 1 0.956188 10.3395 0 0.344475
354 1 21.9102 10.7982 0 1.28808
356 1 23.7579 9.95468 0 0.440342
358 1 24.9802 10.6512 0 2.397
360 1 27.0592 11.3288 0 0.148383
362 1 27.2438 10.2749 0 1.01025
364 1 28.5492 9.9403 0 1.02228
366 1 30.2643 9.73061 0 0.371048
368 1 31.2455 10.142 0 1.44771
370 1 32.9247 10.3133 0 0.772151
372 1 33.6842 9.52488 0 2.44751
374 1 34.7164 9.69366 0 0.705621
376 1 35.9458 10.1001 0 1.39708
378 1 37.3091 10.0746 0 1.27483
380 1 38.3253 10.356 0 0.0779385
382 1 39.2596 9.73509 0 -0.0124829
384 1 40.6043 9.60124 0 -0.70128
386 1 41.7518 9.95724 0 0.0487741
388 1 42.9174 10.098 0 -0.280346
390 1 44.3179 9.96828 0 -0.849714
392 1 45.6032 10.3418 0 0.122134